 Q-Chem 5.0, Q-Chem, Inc., Pleasanton, CA (2017)
 Q-Chem 5.0.2 for Intel X86 EM64T Linux

User input:
--------------------------------------------------------------
$rem
  method = hf
  basis = 3-21g
  scf_convergence = 11
  thresh = 14
  scf_max_cycles = 1000
  symmetry = false
  sym_ignore = true
  cc_symmetry = false
  n_frozen_core = 0
  cis_n_roots = 3
  cis_singlets = true
  cis_triplets = false
  frgm_method = stoll
  frgm_lpcorr = 0
  purecart = 1111
  local_cis = 2
  ! aux_basis = gen ! def2-SVPD/C
  aux_basis = rimp2-cc-pvqz
  nn_thresh = 0
  eigslv_meth = 0
  gen_scfman = true
  scf_print_frgm = true
  cistr_print = 20
$end

$rem_frgm
  cis_n_roots = 0
$end

$molecule
1 1
--
0 1
Ar     0.000000000000000    0.000000000000000    0.0
--
1 1
Li     0.000000000000000    0.000000000000000    2.45
$end

$aux_basis
****
Li    0
S  5  1.00
  85.451043080      0.25324236000
  17.875674410       1.4329803000
  4.4719337600      0.90772073000
  2.7154488900      0.23753913000
  1.1817354400     -0.44771122000
S  1  1.00
 0.42837629000       1.0000000000
S  1  1.00
 0.16838543000       1.0000000000
S  1  1.00
 0.10506578000       1.0000000000
S  1  1.00
 0.43326330000E-01   1.0000000000
P  1  1.00
  7.1346242900      0.21273138000
P  1  1.00
  2.6507292800      0.38815992000
P  1  1.00
 0.68766224000       1.4347271700
P  1  1.00
 0.33680161000       1.0000000000
P  1  1.00
 0.15852579000       1.0000000000
D  3  1.00
  3.6695597600     -0.76839821000
 0.63295635000       1.7744968200
 0.14763175000       1.2301801800
S  1  1.00
 0.0166533  1.0
P  1  1.00
 0.0441184  1.0
D  1  1.00
 0.0503426  1.0
****
Ar    0
S  3  1.00
  581.184      -1.01628
  165.101       3.18488
  60.0502     -0.287131
S  1  1.00
  15.2676       1.00000
S  1  1.00
  7.87286       1.00000
S  1  1.00
  4.81212       1.00000
S  1  1.00
  2.51481       1.00000
S  1  1.00
  1.43151       1.00000
S  1  1.00
 0.683774       1.00000
S  1  1.00
 0.286715       1.00000
P  3  1.00
  95.7281      -1.19798
  23.7126       2.12472
  9.50489      0.475059
P  1  1.00
  3.87991       1.00000
P  1  1.00
  2.08975       1.00000
P  1  1.00
  1.12555       1.00000
P  1  1.00
 0.558344       1.00000
D  3  1.00
  82.5392       1.09088
  26.2760       2.11882
  9.40744    -0.0599555
D  1  1.00
  3.91259       1.00000
D  1  1.00
  1.62726       1.00000
D  1  1.00
 0.949905       1.00000
D  1  1.00
 0.347932       1.00000
F  1  1.00
  6.02016       1.00000
F  2  1.00
  1.78948       1.00000
 0.790978      0.558162
S  1  1.00
 0.0425875  1.0
P  1  1.00
 0.240126  1.0
D  1  1.00
 0.209825  1.0
F  1  1.00
 0.37158   1.0
****
$end
--------------------------------------------------------------

 Q-Chem 5.0, Q-Chem, Inc., Pleasanton, CA (2017)
 Q-Chem 5.0.2 for Intel X86 EM64T Linux

User input:
--------------------------------------------------------------
$molecule
0 1
 18	0.0000000000	0.0000000000	0.0000000000
$end
$rem
METHOD		HF
BASIS		3-21G
SCF_CONVERGENCE		11
THRESH		14
SCF_MAX_CYCLES		1000
SYMMETRY		FALSE
SYM_IGNORE		TRUE
CC_SYMMETRY		FALSE
N_FROZEN_CORE		0
CIS_N_ROOTS		3
CIS_SINGLETS		TRUE
CIS_TRIPLETS		FALSE
PURECART		1111
LOCAL_CIS		2
AUX_BASIS		RIMP2-CC-PVQZ
NN_THRESH		0
EIGSLV_METH		0
GEN_SCFMAN		TRUE
SCF_PRINT_FRGM		TRUE
CISTR_PRINT		20
!rem_frgm keywords
CIS_N_ROOTS		0
!required keywords
JOBTYPE		SP
SYM_IGNORE		TRUE
SUBSYSTEM		TRUE
GEN_SCFMAN		TRUE
CHILD_INSTRUCTION		2
SYM_IGNORE		TRUE
SCFMI		0
RI_K 0
PARI_K 0
MIN_PARI_K 0
IARI_K 0
OCC_RI_K 0
PURECART		1111
MEM_STATIC		62
MEM_TOTAL		2000
GUI		0
CHILD_MP		0
CHILD_MP_ORDERS		0
FRZ_RELAX		0
FRZ_RELAX_METHOD		0
EDA_CLS_ELEC		0
FRZ_ORTHO_DECOMP		0
EDA2		FALSE
FRGM_METHOD		FALSE
$end
--------------------------------------------------------------

    4    -524.3429624628      3.22e-12     00000 Convergence criterion met
 Total job time:  0.10s(wall), 0.09s(cpu)
        *  Thank you very much for using Q-Chem.  Have a nice day.  *
 Q-Chem 5.0, Q-Chem, Inc., Pleasanton, CA (2017)
 Q-Chem 5.0.2 for Intel X86 EM64T Linux

User input:
--------------------------------------------------------------
$molecule
1 1
 3	0.0000000000	0.0000000000	2.4500000000
$end
$rem
METHOD		HF
BASIS		3-21G
SCF_CONVERGENCE		11
THRESH		14
SCF_MAX_CYCLES		1000
SYMMETRY		FALSE
SYM_IGNORE		TRUE
CC_SYMMETRY		FALSE
N_FROZEN_CORE		0
CIS_N_ROOTS		3
CIS_SINGLETS		TRUE
CIS_TRIPLETS		FALSE
PURECART		1111
LOCAL_CIS		2
AUX_BASIS		RIMP2-CC-PVQZ
NN_THRESH		0
EIGSLV_METH		0
GEN_SCFMAN		TRUE
SCF_PRINT_FRGM		TRUE
CISTR_PRINT		20
!rem_frgm keywords
CIS_N_ROOTS		0
!required keywords
JOBTYPE		SP
SYM_IGNORE		TRUE
SUBSYSTEM		TRUE
GEN_SCFMAN		TRUE
CHILD_INSTRUCTION		2
SYM_IGNORE		TRUE
SCFMI		0
RI_K 0
PARI_K 0
MIN_PARI_K 0
IARI_K 0
OCC_RI_K 0
PURECART		1111
MEM_STATIC		62
MEM_TOTAL		2000
GUI		0
CHILD_MP		0
CHILD_MP_ORDERS		0
FRZ_RELAX		0
FRZ_RELAX_METHOD		0
EDA_CLS_ELEC		0
FRZ_ORTHO_DECOMP		0
EDA2		FALSE
FRGM_METHOD		FALSE
$end
--------------------------------------------------------------

             Standard Nuclear Orientation (Angstroms)
    I     Atom           X                Y                Z
 ----------------------------------------------------------------
    1      Li      0.0000000000     0.0000000000     2.4500000000
 ----------------------------------------------------------------

    5      -7.1870945170      3.75e-15     00000 Convergence criterion met

 STANDARD THERMODYNAMIC QUANTITIES AT   298.15 K  AND     1.00 ATM

   Translational Enthalpy:        0.889 kcal/mol
   Rotational Enthalpy:           0.000 kcal/mol
   Vibrational Enthalpy:          0.000 kcal/mol
   gas constant (RT):             0.592 kcal/mol
   Translational Entropy:        31.798  cal/mol.K
   Rotational Entropy:            0.000  cal/mol.K
   Vibrational Entropy:           0.000  cal/mol.K

   Total Enthalpy:                1.481 kcal/mol
   Total Entropy:                31.798  cal/mol.K

 Total job time:  0.09s(wall), 0.09s(cpu)
        *  Thank you very much for using Q-Chem.  Have a nice day.  *
   10    -531.5291511911      4.90e-12     00000 Convergence criterion met
 Total energy in the final basis set =     -531.5291511911

                    Orbital Energies (a.u.)
 --------------------------------------------------------------

 Alpha MOs
 -- Occupied --
  0.000   0.000   0.000   0.000   0.000   0.000   0.000   0.000
  0.000   0.000

          Ground-State Mulliken Net Atomic Charges

     Atom                 Charge (a.u.)
  ----------------------------------------
      1 Ar                    0.000000
      2 Li                    1.000000
  ----------------------------------------
  Sum of atomic charges =     1.000000

                    Cartesian Multipole Moments
 -----------------------------------------------------------------
    Charge (ESU x 10^10)
                 4.8032
    Dipole Moment (Debye)
         X      -0.0000      Y       0.0000      Z      11.6185
       Tot      11.6185
    Quadrupole Moments (Debye-Ang)
        XX     -12.0538     XY      -0.0000     YY     -12.0538
        XZ      -0.0000     YZ       0.0000     ZZ      16.7160

 Total job time:  0.59s(wall), 0.31s(cpu)
        *  Thank you very much for using Q-Chem.  Have a nice day.  *
