 Gaussian 03, Revision B.04,
 Gaussian 03:  x86-Linux-G03RevB.04 2-Jun-2003

 ---------------------------------------------
 #p ub3lyp/sto-3g pop=full iop(3/33=1,3/36=-1)
 ---------------------------------------------

 -------
 Notitle
 -------
 Symbolic Z-matrix:
 Charge =  1 Multiplicity = 2

                         Standard orientation:
 ---------------------------------------------------------------------
 Center     Atomic     Atomic              Coordinates (Angstroms)
 Number     Number      Type              X           Y           Z
 ---------------------------------------------------------------------
    1          6             0        0.269481   -1.410087    0.000000
    2          6             0       -1.064752   -0.920700    0.000000
    3          6             0       -1.325434    0.457029    0.000000
    4          6             0       -0.269481    1.410087    0.000000
    5          6             0        1.064752    0.920700    0.000000
    6          1             0       -1.904434   -1.627596    0.000000
    7          1             0       -2.364772    0.813167    0.000000
    8          1             0        1.904434    1.627596    0.000000
    9          6             0       -0.603732    2.869917    0.000000
   10          6             0        0.269481    3.891952    0.000000
   11          1             0        1.355166    3.742014    0.000000
   12          1             0       -1.681904    3.090005    0.000000
   13          1             0       -0.074029    4.932969    0.000000
   14          6             0        0.603732   -2.869917    0.000000
   15          1             0        1.681904   -3.090005    0.000000
   16          6             0       -0.269481   -3.891952    0.000000
   17          1             0       -1.355166   -3.742014    0.000000
   18          1             0        0.074029   -4.932969    0.000000
   19          6             0        1.325434   -0.457029    0.000000
   20          1             0        2.364772   -0.813167    0.000000
 ---------------------------------------------------------------------

 SCF Done:  E(UB+HF-LYP) =  -382.081378634     A.U. after    8 cycles

 The electronic state is 2-BG.
 Alpha  occ. eigenvalues --  -10.25358 -10.25354 -10.21937 -10.21933 -10.21781
 Alpha  occ. eigenvalues --  -10.21780 -10.21779 -10.21769 -10.21538 -10.21538
 Alpha  occ. eigenvalues --   -1.02076  -0.96195  -0.92167  -0.89903  -0.87688
 Alpha  occ. eigenvalues --   -0.78725  -0.75962  -0.72275  -0.70380  -0.65031
 Alpha  occ. eigenvalues --   -0.63513  -0.60374  -0.59604  -0.58792  -0.56837
 Alpha  occ. eigenvalues --   -0.55243  -0.53736  -0.53365  -0.50120  -0.49297
 Alpha  occ. eigenvalues --   -0.48269  -0.47370  -0.41796  -0.39417  -0.36976
 Alpha virt. eigenvalues --   -0.17751  -0.11124  -0.09444  -0.02963   0.06019
 Alpha virt. eigenvalues --    0.13950   0.14907   0.17923   0.19662   0.21542
 Alpha virt. eigenvalues --    0.22102   0.23990   0.24157   0.26213   0.28528

  Beta  occ. eigenvalues --  -10.25059 -10.25055 -10.21906 -10.21902 -10.21863
  Beta  occ. eigenvalues --  -10.21863 -10.21759 -10.21749 -10.21092 -10.21092
  Beta  occ. eigenvalues --   -1.01470  -0.95450  -0.91381  -0.89740  -0.86467
  Beta  occ. eigenvalues --   -0.78194  -0.75557  -0.71884  -0.70067  -0.64811
  Beta  occ. eigenvalues --   -0.63306  -0.60100  -0.59325  -0.58503  -0.56766
  Beta  occ. eigenvalues --   -0.54949  -0.53540  -0.51735  -0.49959  -0.49147
  Beta  occ. eigenvalues --   -0.48112  -0.45083  -0.39103  -0.38884
  Beta virt. eigenvalues --   -0.30053  -0.14705  -0.10317  -0.07374  -0.00823
  Beta virt. eigenvalues --    0.07640   0.14194   0.15096   0.18110   0.19811
  Beta virt. eigenvalues --    0.22105   0.22637   0.24293   0.24659   0.26928

 Mulliken atomic charges:
              1
     1  C    0.055738
     2  C   -0.041036
     3  C   -0.038142
     4  C    0.055738
     5  C   -0.041036
     6  H    0.123230
     7  H    0.126997
     8  H    0.123230
     9  C   -0.040366
    10  C   -0.076738
    11  H    0.123971
    12  H    0.124648
    13  H    0.141698
    14  C   -0.040366
    15  H    0.124648
    16  C   -0.076738
    17  H    0.123971
    18  H    0.141698
    19  C   -0.038142
    20  H    0.126997
 Sum of Mulliken charges=   1.00000

 Normal termination of Gaussian 03 at Mon Aug 28 16:45:19 2006.
