 Gaussian 03, Revision B.04,
 Gaussian 03:  x86-Linux-G03RevB.04 2-Jun-2003

 ------------------------
 #p rb3lyp/sto-3g gfinput
 ------------------------

 -------
 Notitle
 -------
 Symbolic Z-matrix:
 Charge =  0 Multiplicity = 1

                         Standard orientation:
 ---------------------------------------------------------------------
 Center     Atomic     Atomic              Coordinates (Angstroms)
 Number     Number      Type              X           Y           Z
 ---------------------------------------------------------------------
    1          6             0        0.269481   -1.410087    0.000000
    2          6             0       -1.064752   -0.920700    0.000000
    3          6             0       -1.325434    0.457029    0.000000
    4          6             0       -0.269481    1.410087    0.000000
    5          6             0        1.064752    0.920700    0.000000
    6          1             0       -1.904434   -1.627596    0.000000
    7          1             0       -2.364772    0.813167    0.000000
    8          1             0        1.904434    1.627596    0.000000
    9          6             0       -0.603732    2.869917    0.000000
   10          6             0        0.269481    3.891952    0.000000
   11          1             0        1.355166    3.742014    0.000000
   12          1             0       -1.681904    3.090005    0.000000
   13          1             0       -0.074029    4.932969    0.000000
   14          6             0        0.603732   -2.869917    0.000000
   15          1             0        1.681904   -3.090005    0.000000
   16          6             0       -0.269481   -3.891952    0.000000
   17          1             0       -1.355166   -3.742014    0.000000
   18          1             0        0.074029   -4.932969    0.000000
   19          6             0        1.325434   -0.457029    0.000000
   20          1             0        2.364772   -0.813167    0.000000
 ---------------------------------------------------------------------

 SCF Done:  E(RB+HF-LYP) =  -382.308251113     A.U. after    6 cycles

 The electronic state is 1-AG.
 Alpha  occ. eigenvalues --  -10.02018 -10.02014 -10.00815 -10.00815 -10.00676
 Alpha  occ. eigenvalues --  -10.00675 -10.00602 -10.00588  -9.99235  -9.99235
 Alpha  occ. eigenvalues --   -0.80948  -0.75399  -0.71797  -0.69976  -0.66750
 Alpha  occ. eigenvalues --   -0.58868  -0.55891  -0.53167  -0.51016  -0.45745
 Alpha  occ. eigenvalues --   -0.43937  -0.41059  -0.39795  -0.39608  -0.37396
 Alpha  occ. eigenvalues --   -0.35115  -0.34730  -0.32449  -0.31126  -0.29278
 Alpha  occ. eigenvalues --   -0.28745  -0.26355  -0.21245  -0.19503  -0.15308
 Alpha virt. eigenvalues --    0.03742   0.09039   0.11060   0.18220   0.27254
 Alpha virt. eigenvalues --    0.33223   0.34072   0.37938   0.38145   0.41097
 Alpha virt. eigenvalues --    0.41195   0.42676   0.43965   0.45276   0.47827

 Mulliken atomic charges:
              1
     1  C   -0.004495
     2  C   -0.077072
     3  C   -0.076618
     4  C   -0.004495
     5  C   -0.077072
     6  H    0.079189
     7  H    0.077679
     8  H    0.079189
     9  C   -0.076428
    10  C   -0.154855
    11  H    0.076344
    12  H    0.076902
    13  H    0.079355
    14  C   -0.076428
    15  H    0.076902
    16  C   -0.154855
    17  H    0.076344
    18  H    0.079355
    19  C   -0.076618
    20  H    0.077679
 Sum of Mulliken charges=   0.00000

 Dipole moment (field-independent basis, Debye):
    X=     0.0000    Y=     0.0000    Z=     0.0000  Tot=     0.0000
 Quadrupole moment (field-independent basis, Debye-Ang):
   XX=   -50.2218   YY=   -50.7209   ZZ=   -58.6254
   XY=    -0.0592   XZ=     0.0000   YZ=     0.0000

 Normal termination of Gaussian 03 at Thu Jul 27 20:39:55 2006.
