 Gaussian 03, Revision C.02,
 Gaussian 03:  Su64S-G03RevC.02 12-Jun-2004

 ------------------------------------------------------------
 #p gfinput iop(6/7=3) iop(3/33=1) #B3LYP/Gen pseudo=read #SP
 ------------------------------------------------------------

 -------------------------------
 Mo4OCl4 restricted single point
 -------------------------------
 Symbolic Z-matrix:
 Charge = -2 Multiplicity = 1

                         Standard orientation:
 ---------------------------------------------------------------------
 Center     Atomic     Atomic              Coordinates (Angstroms)
 Number     Number      Type              X           Y           Z
 ---------------------------------------------------------------------
    1         42             0        0.000006    0.295685    0.000000
    2          8             0        0.000004    1.985379    0.000000
    3         17             0        2.420224   -0.416209    0.000000
    4         17             0        0.000004   -0.416204    2.420236
    5         17             0       -2.420249   -0.416198    0.000000
    6         17             0        0.000004   -0.416204   -2.420236
 ---------------------------------------------------------------------

 SCF Done:  E(RB+HF-LYP) =  -202.713592257     A.U. after    7 cycles

 The electronic state is 1-A'.
 Alpha  occ. eigenvalues --  -18.86964  -2.22012  -1.28574  -1.22187  -1.22187
 Alpha  occ. eigenvalues --   -0.61100  -0.41365  -0.40222  -0.40222  -0.39976
 Alpha  occ. eigenvalues --   -0.09019  -0.07596  -0.07596  -0.00894  -0.00514
 Alpha  occ. eigenvalues --    0.00074   0.01528   0.01528   0.02871   0.04800
 Alpha  occ. eigenvalues --    0.04800   0.05711   0.06040   0.06040   0.07858
 Alpha  occ. eigenvalues --    0.13439
 Alpha virt. eigenvalues --    0.24844   0.24844   0.29087   0.29341   0.36106
 Alpha virt. eigenvalues --    0.44407   0.45856   0.45856   1.24916   1.24916
 Alpha virt. eigenvalues --    1.26110   1.56963   2.06986   2.07038   2.08402

 Mulliken atomic charges:
              1
     1  Mo   0.631729
     2  O   -0.472732
     3  Cl  -0.539746
     4  Cl  -0.539749
     5  Cl  -0.539753
     6  Cl  -0.539749
 Sum of Mulliken charges=  -2.00000

 Dipole moment (field-independent basis, Debye):
    X=     0.0001    Y=     1.0199    Z=     0.0000  Tot=     1.0199
 Quadrupole moment (field-independent basis, Debye-Ang):
   XX=  -111.2004   YY=   -87.7892   ZZ=  -111.2004
   XY=     0.0000   XZ=     0.0000   YZ=     0.0000

 Normal termination of Gaussian 03 at Fri Oct 13 10:19:07 2006.
