 Gaussian 03, Revision B.03,
 Gaussian 03:  x86-Linux-G03RevB.03 4-May-2003

 --------------------------------
 #P CIS(D,50-50,NStates=5)/STO-3G
 --------------------------------

 -----
 Water
 -----
 Symbolic Z-matrix:
 Charge =  0 Multiplicity = 1

                         Standard orientation:
 ---------------------------------------------------------------------
 Center     Atomic     Atomic              Coordinates (Angstroms)
 Number     Number      Type              X           Y           Z
 ---------------------------------------------------------------------
    1          8             0        0.000000    0.000000    0.119159
    2          1             0        0.000000    0.790649   -0.476637
    3          1             0        0.000000   -0.790649   -0.476637
 ---------------------------------------------------------------------

 SCF Done:  E(RHF) =  -74.9643287913     A.U. after    7 cycles

 Excitation energies and oscillator strengths:

 Excited State   1:   Triplet-B1    10.1773 eV  121.82 nm  f=0.0000
       5 ->  6         0.70711
 This state for optimization and/or second-order correction.
 Total Energy, E(CIS) =  -74.5903204994
 Copying the excited state density for this state as the 1-particle RhoCI density.

 Excited State   2:   Singlet-B1    12.2266 eV  101.40 nm  f=0.0034
       5 ->  6         0.70711

 Excited State   3:   Triplet-A1    12.2743 eV  101.01 nm  f=0.0000
       3 ->  7        -0.16334
       4 ->  6         0.68423

 Excited State   4:   Triplet-A2    12.9040 eV   96.08 nm  f=0.0000
       5 ->  7         0.70711

 Excited State   5:   Triplet-B2    14.1315 eV   87.74 nm  f=0.0000
       3 ->  6        -0.37900
       4 ->  7         0.59603

 Excited State   6:   Singlet-A2    14.2466 eV   87.03 nm  f=0.0000
       5 ->  7         0.70711

 Excited State   7:   Singlet-A1    15.8635 eV   78.16 nm  f=0.0735
       3 ->  7         0.17520
       4 ->  6         0.68369

 Excited State   8:   Triplet-B2    17.0482 eV   72.73 nm  f=0.0000
       3 ->  6         0.58973
       4 ->  7         0.37995

 Excited State   9:   Singlet-B2    18.1613 eV   68.27 nm  f=0.0505
       3 ->  6         0.31164
       4 ->  7         0.63472

 Excited State  10:   Triplet-A1    19.1833 eV   64.63 nm  f=0.0000
       2 ->  6         0.10940
       3 ->  7         0.67682
       4 ->  6         0.17305
 Calling MO disk program.

 The electronic state is 1-A1.
 Alpha  occ. eigenvalues --  -20.24375  -1.25064  -0.60317  -0.44547  -0.38821
 Alpha virt. eigenvalues --    0.57075   0.70859

 Mulliken atomic charges:
              1
     1  O   -0.339215
     2  H    0.169607
     3  H    0.169607
 Sum of Mulliken charges=   0.00000

 Dipole moment (field-independent basis, Debye):
    X=     0.0000    Y=     0.0000    Z=    -1.6735  Tot=     1.6735
 Quadrupole moment (field-independent basis, Debye-Ang):
   XX=    -6.1213   YY=    -4.2950   ZZ=    -5.4175
   XY=     0.0000   XZ=     0.0000   YZ=     0.0000

 Normal termination of Gaussian 03 at Sat Mar 17 16:45:21 2007.
