 Gaussian 03, Revision B.03,
 Gaussian 03:  x86-Linux-G03RevB.03 4-May-2003

 ----------------------
 #P MP5/STO-3G Pop=Full
 ----------------------

 -----
 Water
 -----
 Symbolic Z-matrix:
 Charge =  0 Multiplicity = 1

                         Standard orientation:
 ---------------------------------------------------------------------
 Center     Atomic     Atomic              Coordinates (Angstroms)
 Number     Number      Type              X           Y           Z
 ---------------------------------------------------------------------
    1          8             0        0.000000    0.000000    0.119159
    2          1             0        0.000000    0.790649   -0.476637
    3          1             0        0.000000   -0.790649   -0.476637
 ---------------------------------------------------------------------

 SCF Done:  E(UHF) =  -74.9643287913     A.U. after    7 cycles

 The electronic state is 1-A1.
 Alpha  occ. eigenvalues --  -20.24375  -1.25064  -0.60317  -0.44547  -0.38821
 Alpha virt. eigenvalues --    0.57075   0.70859
  Beta  occ. eigenvalues --  -20.24375  -1.25064  -0.60317  -0.44547  -0.38821
  Beta virt. eigenvalues --    0.57075   0.70859

 Mulliken atomic charges:
              1
     1  O   -0.339215
     2  H    0.169607
     3  H    0.169607
 Sum of Mulliken charges=   0.00000

 Dipole moment (field-independent basis, Debye):
    X=     0.0000    Y=     0.0000    Z=    -1.6735  Tot=     1.6735
 Quadrupole moment (field-independent basis, Debye-Ang):
   XX=    -6.1213   YY=    -4.2950   ZZ=    -5.4175
   XY=     0.0000   XZ=     0.0000   YZ=     0.0000

 Normal termination of Gaussian 03 at Tue Aug  7 11:44:35 2007.
