 Output coordinates in angstroms (scale by  1.889725989 to convert to a.u.)

  No.       Tag          Charge          X              Y              Z
 ---- ---------------- ---------- -------------- -------------- --------------
    1 C                    6.0000     0.22718562    -1.39293283     0.00000000
    2 C                    6.0000     1.28896808    -0.48658405     0.00000000
    3 C                    6.0000     1.06947876     0.87774341     0.00000000
    4 C                    6.0000    -0.22718562     1.39293283     0.00000000
    5 C                    6.0000    -1.28896808     0.48658405     0.00000000
    6 C                    6.0000    -1.06947876    -0.87774341     0.00000000
    7 H                    1.0000     2.30443310    -0.86173403     0.00000000
    8 H                    1.0000     1.91843911     1.54733997     0.00000000
    9 H                    1.0000    -2.30443310     0.86173403     0.00000000
   10 H                    1.0000    -1.91843911    -1.54733997     0.00000000
   11 C                    6.0000    -0.52058577     2.85994625     0.00000000
   12 C                    6.0000     0.35579953     3.83839997     0.00000000
   13 H                    1.0000    -1.57769586     3.10157149     0.00000000
   14 H                    1.0000     0.04202054     4.87295155     0.00000000
   15 H                    1.0000     1.42359617     3.67431499     0.00000000
   16 C                    6.0000     0.52058577    -2.85994625     0.00000000
   17 C                    6.0000    -0.35579953    -3.83839997     0.00000000
   18 H                    1.0000     1.57769586    -3.10157149     0.00000000
   19 H                    1.0000    -0.04202054    -4.87295155     0.00000000
   20 H                    1.0000    -1.42359617    -3.67431499     0.00000000

         Total SCF energy =   -379.777954893702

 Vector   11  Occ=2.000000D+00  E=-1.106673D+00

 Vector   12  Occ=2.000000D+00  E=-1.031757D+00

 Vector   13  Occ=2.000000D+00  E=-9.884779D-01

 Vector   14  Occ=2.000000D+00  E=-9.609571D-01

 Vector   15  Occ=2.000000D+00  E=-9.226743D-01

 Vector   16  Occ=2.000000D+00  E=-8.064234D-01

 Vector   17  Occ=2.000000D+00  E=-7.712625D-01

 Vector   18  Occ=2.000000D+00  E=-7.329963D-01

 Vector   19  Occ=2.000000D+00  E=-7.072559D-01

 Vector   20  Occ=2.000000D+00  E=-6.391909D-01

 Vector   21  Occ=2.000000D+00  E=-6.151222D-01

 Vector   22  Occ=2.000000D+00  E=-5.776194D-01

 Vector   23  Occ=2.000000D+00  E=-5.638389D-01

 Vector   24  Occ=2.000000D+00  E=-5.628982D-01

 Vector   25  Occ=2.000000D+00  E=-5.325205D-01

 Vector   26  Occ=2.000000D+00  E=-5.074081D-01

 Vector   27  Occ=2.000000D+00  E=-4.981374D-01

 Vector   28  Occ=2.000000D+00  E=-4.772792D-01

 Vector   29  Occ=2.000000D+00  E=-4.486789D-01

 Vector   30  Occ=2.000000D+00  E=-4.259332D-01

 Vector   31  Occ=2.000000D+00  E=-4.182141D-01

 Vector   32  Occ=2.000000D+00  E=-3.868615D-01

 Vector   33  Occ=2.000000D+00  E=-3.269296D-01

 Vector   34  Occ=2.000000D+00  E=-2.856037D-01

 Vector   35  Occ=2.000000D+00  E=-2.332206D-01

 Vector   36  Occ=0.000000D+00  E= 2.069590D-01

 Vector   37  Occ=0.000000D+00  E= 2.731963D-01

 Vector   38  Occ=0.000000D+00  E= 3.186210D-01

 Vector   39  Occ=0.000000D+00  E= 4.060615D-01

 Vector   40  Occ=0.000000D+00  E= 5.375256D-01

 Vector   41  Occ=0.000000D+00  E= 5.685549D-01

 Vector   42  Occ=0.000000D+00  E= 5.828069D-01

 Vector   43  Occ=0.000000D+00  E= 6.323686D-01

 Vector   44  Occ=0.000000D+00  E= 6.348794D-01

 Vector   45  Occ=0.000000D+00  E= 6.824801D-01

       Multipole analysis of the density wrt the origin
       ------------------------------------------------

     L   x y z        total         open         nuclear
     -   - - -        -----         ----         -------
     0   0 0 0      0.000000      0.000000     70.000000

     1   1 0 0      0.000000      0.000000      0.000000
     1   0 1 0      0.000000      0.000000      0.000000
     1   0 0 1      0.000000      0.000000      0.000000

     2   2 0 0    -38.489240      0.000000    235.940038
     2   1 1 0     -0.093687      0.000000      5.402683
     2   1 0 1      0.000000      0.000000      0.000000
     2   0 2 0    -39.168479      0.000000   1465.302231
     2   0 1 1      0.000000      0.000000      0.000000

 Zero-Point correction to Energy  =  121.366 kcal/mol  (  0.193409 au)
 Thermal correction to Energy     =  126.595 kcal/mol  (  0.201743 au)
 Thermal correction to Enthalpy   =  127.188 kcal/mol  (  0.202687 au)
 Total Entropy                    =   90.977 cal/mol-K
   - Translational                =   40.484 cal/mol-K (mol. weight = 130.0782)
   - Rotational                   =   28.048 cal/mol-K (symmetry #  =        2)
   - Vibrational                  =   22.445 cal/mol-K
   - Translational                  =    2.979 cal/mol-K
   - Rotational                     =    2.979 cal/mol-K
   - Vibrational                    =   24.394 cal/mol-K
 P.Frequency        0.00        0.00        0.00        0.00        0.00        0.00
 P.Frequency       37.56       57.57      154.88      197.50      292.26      330.30
 P.Frequency      444.36      477.06      525.72      528.45      629.25      738.22
 P.Frequency      740.01      795.11      797.73      918.47      945.83     1020.90
 P.Frequency     1022.73     1145.66     1145.69     1154.73     1162.74     1179.52
 P.Frequency     1187.57     1213.18     1234.91     1246.48     1246.72     1333.40
 P.Frequency     1386.60     1418.31     1428.80     1534.05     1552.45     1565.66
 P.Frequency     1666.82     1716.32     1724.92     1819.24     1888.97     1948.39
 P.Frequency     2038.83     2040.51     3658.61     3659.68     3711.79     3711.88
 P.Frequency     3716.38     3723.48     3742.09     3745.37     3816.86     3816.89

 Normal Eigenvalue ||           Projected Infra Red Intensities
  Mode   [cm**-1]  || [atomic units] [(debye/angs)**2] [(KM/mol)] [arbitrary]
 ------ ---------- || -------------- ----------------- ---------- -----------
    1        0.000 ||    0.000000           0.000         0.000       0.000
    2        0.000 ||    0.000000           0.000         0.000       0.000
    3        0.000 ||    0.000000           0.000         0.000       0.000
    4        0.000 ||    0.000000           0.000         0.000       0.000
    5        0.000 ||    0.000000           0.000         0.000       0.000
    6        0.000 ||    0.000000           0.000         0.000       0.000
    7       37.565 ||    0.000001           0.000         0.001       0.003
    8       57.575 ||    0.000000           0.000         0.000       0.000
    9      154.880 ||    0.000270           0.006         0.264       0.535
   10      197.502 ||    0.000232           0.005         0.227       0.460
   11      292.257 ||    0.000000           0.000         0.000       0.000
   12      330.296 ||    0.000000           0.000         0.000       0.000
   13      444.361 ||    0.000000           0.000         0.000       0.000
   14      477.063 ||    0.000072           0.002         0.070       0.143
   15      525.722 ||    0.003243           0.075         3.161       6.418
   16      528.446 ||    0.002372           0.055         2.312       4.694
   17      629.250 ||    0.000000           0.000         0.000       0.000
   18      738.215 ||    0.000000           0.000         0.000       0.000
   19      740.011 ||    0.000000           0.000         0.000       0.000
   20      795.109 ||    0.000230           0.005         0.225       0.456
   21      797.729 ||    0.005739           0.132         5.594      11.357
   22      918.470 ||    0.000000           0.000         0.000       0.000
   23      945.829 ||    0.000000           0.000         0.000       0.000
   24     1020.897 ||    0.018736           0.432        18.265      37.082
   25     1022.728 ||    0.000000           0.000         0.000       0.000
   26     1145.656 ||    0.000001           0.000         0.001       0.002
   27     1145.693 ||    0.031624           0.730        30.828      62.588
   28     1154.734 ||    0.000481           0.011         0.469       0.953
   29     1162.741 ||    0.000000           0.000         0.000       0.000
   30     1179.521 ||    0.000132           0.003         0.129       0.262
   31     1187.569 ||    0.000045           0.001         0.044       0.089
   32     1213.182 ||    0.000000           0.000         0.000       0.000
   33     1234.906 ||    0.010294           0.238        10.036      20.374
   34     1246.480 ||    0.007749           0.179         7.555      15.337
   35     1246.724 ||    0.000000           0.000         0.000       0.000
   36     1333.402 ||    0.004937           0.114         4.813       9.771
   37     1386.605 ||    0.000000           0.000         0.000       0.000
   38     1418.308 ||    0.000000           0.000         0.000       0.000
   39     1428.796 ||    0.000039           0.001         0.038       0.077
   40     1534.055 ||    0.000000           0.000         0.000       0.000
   41     1552.453 ||    0.017294           0.399        16.859      34.227
   42     1565.664 ||    0.000000           0.000         0.000       0.000
   43     1666.817 ||    0.019068           0.440        18.589      37.739
   44     1716.317 ||    0.000000           0.000         0.000       0.000
   45     1724.923 ||    0.001525           0.035         1.486       3.018
   46     1819.245 ||    0.019151           0.442        18.670      37.903
   47     1888.971 ||    0.000000           0.000         0.000       0.000
   48     1948.387 ||    0.000000           0.000         0.000       0.000
   49     2038.825 ||    0.000000           0.000         0.000       0.000
   50     2040.513 ||    0.000676           0.016         0.659       1.337
   51     3658.607 ||    0.139934           3.228       136.415     276.952
   52     3659.682 ||    0.000000           0.000         0.000       0.000
   53     3711.794 ||    0.010077           0.232         9.823      19.943
   54     3711.881 ||    0.000000           0.000         0.000       0.000
   55     3716.376 ||    0.001330           0.031         1.296       2.631
   56     3723.485 ||    0.000000           0.000         0.000       0.000
   57     3742.085 ||    0.007617           0.176         7.425      15.075
   58     3745.374 ||    0.000000           0.000         0.000       0.000
   59     3816.865 ||    0.000289           0.007         0.282       0.572
   60     3816.890 ||    0.000000           0.000         0.000       0.000
 ----------------------------------------------------------------------------

 Total times  cpu:       29.3s     wall:       29.8s
