                         Program Version 4.2.0 -  RELEASE  -
|  1> ! TightSCF STO-3G RIJCOSX AutoAux
|  2>
|  3> % rocis
|  4>     NRoots  5
|  5>     MaxCore 2500
|  6>     MaxDim  50
|  7>     DoRI    true
|  8>     SOC     true
|  9>     DoHigherMult true
| 10>     DoQuad      true
| 11>     OrbWin = 0, 0, 0, 2000
| 12> end
| 13>
| 14> * xyz 1 2
| 15> 	C                  0.27867948   -1.36683162    0.00000000
| 16> 	C                  1.32303041   -0.44173575    0.00000000
| 17> 	C                  1.04434506    0.92484978    0.00000000
| 18> 	C                 -0.27867948    1.36683162    0.00000000
| 19> 	C                 -1.32303041    0.44173575    0.00000000
| 20> 	C                 -1.04434506   -0.92484978    0.00000000
| 21> 	H                  2.36595443   -0.79037726    0.00000000
| 22> 	H                  1.86746094    1.65407997    0.00000000
| 23> 	H                 -2.36595443    0.79037726    0.00000000
| 24> 	H                 -1.86746094   -1.65407997    0.00000000
| 25> 	C                 -0.58659169    2.87589931    0.00000000
| 26> 	C                  0.36350188    3.80076420    0.00000000
| 27> 	H                 -1.65647768    3.12394312    0.00000000
| 28> 	H                  0.14429560    4.87693235    0.00000000
| 29> 	H                  1.43338788    3.55272039    0.00000000
| 30> 	C                  0.58659169   -2.87589931    0.00000000
| 31> 	C                 -0.36350188   -3.80076420    0.00000000
| 32> 	H                  1.65647768   -3.12394312    0.00000000
| 33> 	H                 -0.14429560   -4.87693235    0.00000000
| 34> 	H                 -1.43338788   -3.55272039    0.00000000
| 35> *
| 36> %pal
| 37>  nprocs 4
| 38> end
| 39>
| 40>                          ****END OF INPUT****

CARTESIAN COORDINATES (ANGSTROEM)
---------------------------------
  C      0.278679   -1.366832    0.000000
  C      1.323030   -0.441736    0.000000
  C      1.044345    0.924850    0.000000
  C     -0.278679    1.366832    0.000000
  C     -1.323030    0.441736    0.000000
  C     -1.044345   -0.924850    0.000000
  H      2.365954   -0.790377    0.000000
  H      1.867461    1.654080    0.000000
  H     -2.365954    0.790377    0.000000
  H     -1.867461   -1.654080    0.000000
  C     -0.586592    2.875899    0.000000
  C      0.363502    3.800764    0.000000
  H     -1.656478    3.123943    0.000000
  H      0.144296    4.876932    0.000000
  H      1.433388    3.552720    0.000000
  C      0.586592   -2.875899    0.000000
  C     -0.363502   -3.800764    0.000000
  H      1.656478   -3.123943    0.000000
  H     -0.144296   -4.876932    0.000000
  H     -1.433388   -3.552720    0.000000

 Total Charge           Charge          ....    1
 Multiplicity           Mult            ....    2
 Number of Electrons    NEL             ....   69
 Basis Dimension        Dim             ....   60

ORBITAL ENERGIES
----------------
                 SPIN UP ORBITALS
  NO   OCC          E(Eh)            E(eV)
   0   1.0000     -11.310719      -307.7803
   1   1.0000     -11.310639      -307.7781
   2   1.0000     -11.291069      -307.2456
   3   1.0000     -11.290992      -307.2435
   4   1.0000     -11.243760      -305.9583
   5   1.0000     -11.243687      -305.9563
   6   1.0000     -11.218141      -305.2611
   7   1.0000     -11.218141      -305.2611
   8   1.0000     -11.213788      -305.1427
   9   1.0000     -11.213788      -305.1427
  10   1.0000      -1.343567       -36.5603
  11   1.0000      -1.245946       -33.9039
  12   1.0000      -1.176444       -32.0127
  13   1.0000      -1.172382       -31.9021
  14   1.0000      -1.136031       -30.9130
  15   1.0000      -1.012747       -27.5583
  16   1.0000      -0.985994       -26.8303
  17   1.0000      -0.908504       -24.7217
  18   1.0000      -0.905748       -24.6467
  19   1.0000      -0.826496       -22.4901
  20   1.0000      -0.811779       -22.0896
  21   1.0000      -0.787585       -21.4313
  22   1.0000      -0.764043       -20.7907
  23   1.0000      -0.736240       -20.0341
  24   1.0000      -0.735078       -20.0025
  25   1.0000      -0.711980       -19.3740
  26   1.0000      -0.702360       -19.1122
  27   1.0000      -0.682211       -18.5639
  28   1.0000      -0.645254       -17.5583
  29   1.0000      -0.629806       -17.1379
  30   1.0000      -0.610141       -16.6028
  31   1.0000      -0.603438       -16.4204
  32   1.0000      -0.533891       -14.5279
  33   1.0000      -0.512573       -13.9478
  34   1.0000      -0.476269       -12.9599
  35   0.0000      -0.044312        -1.2058
  36   0.0000       0.066926         1.8211
  37   0.0000       0.141358         3.8465
  38   0.0000       0.207988         5.6596
  39   0.0000       0.301606         8.2071

                 SPIN DOWN ORBITALS
  NO   OCC          E(Eh)            E(eV)
   0   1.0000     -11.299215      -307.4673
   1   1.0000     -11.299163      -307.4659
   2   1.0000     -11.284825      -307.0757
   3   1.0000     -11.284770      -307.0742
   4   1.0000     -11.251418      -306.1666
   5   1.0000     -11.251349      -306.1648
   6   1.0000     -11.233822      -305.6878
   7   1.0000     -11.233822      -305.6878
   8   1.0000     -11.195501      -304.6451
   9   1.0000     -11.195501      -304.6451
  10   1.0000      -1.321867       -35.9698
  11   1.0000      -1.224335       -33.3159
  12   1.0000      -1.179042       -32.0834
  13   1.0000      -1.167729       -31.7755
  14   1.0000      -1.098315       -29.8867
  15   1.0000      -0.997565       -27.1451
  16   1.0000      -0.971041       -26.4234
  17   1.0000      -0.908179       -24.7128
  18   1.0000      -0.897089       -24.4110
  19   1.0000      -0.826585       -22.4925
  20   1.0000      -0.806260       -21.9394
  21   1.0000      -0.778544       -21.1853
  22   1.0000      -0.759718       -20.6730
  23   1.0000      -0.735480       -20.0134
  24   1.0000      -0.733074       -19.9480
  25   1.0000      -0.698468       -19.0063
  26   1.0000      -0.678628       -18.4664
  27   1.0000      -0.652943       -17.7675
  28   1.0000      -0.641196       -17.4478
  29   1.0000      -0.624384       -16.9904
  30   1.0000      -0.608952       -16.5704
  31   1.0000      -0.565282       -15.3821
  32   1.0000      -0.507540       -13.8109
  33   1.0000      -0.497234       -13.5304
  34   0.0000      -0.155743        -4.2380
  35   0.0000       0.070927         1.9300
  36   0.0000       0.096012         2.6126
  37   0.0000       0.177787         4.8378
  38   0.0000       0.235261         6.4018

MULLIKEN ATOMIC CHARGES AND SPIN POPULATIONS
--------------------------------------------
   0 C :    0.093098    0.480136
   1 C :   -0.048415   -0.311194
   2 C :    0.015786    0.270880
   3 C :    0.093098    0.480135
   4 C :   -0.048415   -0.311193
   5 C :    0.015786    0.270879
   6 H :    0.117013    0.021770
   7 H :    0.128479   -0.019922
   8 H :    0.117013    0.021770
   9 H :    0.128479   -0.019922
  10 C :   -0.032798   -0.639404
  11 C :   -0.079492    0.766462
  12 H :    0.104702    0.045752
  13 H :    0.114129   -0.058127
  14 H :    0.087497   -0.056352
  15 C :   -0.032798   -0.639404
  16 C :   -0.079492    0.766462
  17 H :    0.104702    0.045752
  18 H :    0.114129   -0.058127
  19 H :    0.087497   -0.056352
Sum of atomic charges         :    1.0000000

LOEWDIN ATOMIC CHARGES AND SPIN POPULATIONS
-------------------------------------------
   0 C :    0.125512    0.434218
   1 C :   -0.025696   -0.268926
   2 C :    0.065780    0.253665
   3 C :    0.125512    0.434218
   4 C :   -0.025696   -0.268925
   5 C :    0.065780    0.253664
   6 H :    0.073298    0.015957
   7 H :    0.082759   -0.014403
   8 H :    0.073298    0.015957
   9 H :    0.082759   -0.014403
  10 C :    0.000115   -0.562144
  11 C :   -0.011196    0.691963
  12 H :    0.063232    0.033595
  13 H :    0.072925   -0.042721
  14 H :    0.053271   -0.041205
  15 C :    0.000116   -0.562144
  16 C :   -0.011196    0.691963
  17 H :    0.063232    0.033595
  18 H :    0.072925   -0.042721
  19 H :    0.053271   -0.041205

  Mayer bond orders larger than 0.100000
B(  0-C ,  1-C ) :   1.2869 B(  0-C ,  5-C ) :   1.2158 B(  0-C , 15-C ) :   1.1033
B(  1-C ,  2-C ) :   1.5365 B(  1-C ,  6-H ) :   0.9604 B(  2-C ,  3-C ) :   1.2158
B(  2-C ,  7-H ) :   0.9540 B(  3-C ,  4-C ) :   1.2869 B(  3-C , 10-C ) :   1.1033
B(  4-C ,  5-C ) :   1.5365 B(  4-C ,  8-H ) :   0.9604 B(  5-C ,  9-H ) :   0.9540
B( 10-C , 11-C ) :   1.6028 B( 10-C , 12-H ) :   0.9589 B( 11-C , 13-H ) :   0.9632
B( 11-C , 14-H ) :   0.9643 B( 15-C , 16-C ) :   1.6028 B( 15-C , 17-H ) :   0.9589
B( 16-C , 18-H ) :   0.9632 B( 16-C , 19-H ) :   0.9643

-------------------------------------------------------------------------------
SPIN ORBIT CORRECTED ABSORPTION SPECTRUM VIA TRANSITION ELECTRIC DIPOLE MOMENTS
-------------------------------------------------------------------------------
States    Energy  Wavelength   fosc         T2         TX        TY        TZ
          (cm-1)    (nm)                  (au**2)     (au)      (au)      (au)
-------------------------------------------------------------------------------
 0  1       0.0    0.0   0.000000000   0.00000   0.00000   0.00000   0.00000
 0  2 2316970.8    4.3   0.000000001   0.00000   0.00000   0.00000   0.00001
 0  3 2316970.8    4.3   0.015320799   0.00435   0.00000   0.00000   0.06598
 0  4 2371429.4    4.2   0.000000000   0.00000   0.00000   0.00000   0.00000
 0  5 2371429.4    4.2   0.000000000   0.00000   0.00000   0.00000   0.00000
 0  6 2371429.4    4.2   0.000000000   0.00000   0.00000   0.00000   0.00000
 0  7 2371429.4    4.2   0.000000000   0.00000   0.00000   0.00000   0.00000
 0  8 2375571.0    4.2   0.000000000   0.00000   0.00000   0.00000   0.00001
 0  9 2375571.0    4.2   0.000000312   0.00000   0.00000   0.00000   0.00029
 0 10 2405853.4    4.2   0.000000000   0.00000   0.00000   0.00000   0.00000
 0 11 2405853.4    4.2   0.000000000   0.00000   0.00000   0.00000   0.00000
 0 12 2426519.9    4.1   0.000000000   0.00000   0.00000   0.00000   0.00000
 0 13 2426519.9    4.1   0.000000000   0.00000   0.00000   0.00000   0.00000
 0 14 2426519.9    4.1   0.000000000   0.00000   0.00000   0.00000   0.00000
 0 15 2426519.9    4.1   0.000000000   0.00000   0.00000   0.00000   0.00000
 0 16 2427972.0    4.1   0.000000011   0.00000   0.00000   0.00000   0.00005
 0 17 2427972.0    4.1   0.000000000   0.00000   0.00000   0.00000   0.00000
 0 18 2451799.4    4.1   0.000000000   0.00000   0.00000   0.00000   0.00000
 0 19 2451799.4    4.1   0.000000000   0.00000   0.00000   0.00000   0.00000
 0 20 2451799.4    4.1   0.000000000   0.00000   0.00000   0.00000   0.00000
 0 21 2451799.4    4.1   0.000000000   0.00000   0.00000   0.00000   0.00000
 0 22 2464053.2    4.1   0.000000000   0.00000   0.00000   0.00000   0.00000
 0 23 2464053.2    4.1   0.000000000   0.00000   0.00000   0.00000   0.00000
 0 24 2464053.2    4.1   0.000000000   0.00000   0.00000   0.00000   0.00000
 0 25 2464053.2    4.1   0.000000000   0.00000   0.00000   0.00000   0.00000
 0 26 2464425.2    4.1   0.000000000   0.00000   0.00000   0.00000   0.00000
 0 27 2464425.2    4.1   0.000000000   0.00000   0.00000   0.00000   0.00000
 0 28 2464425.2    4.1   0.000000000   0.00000   0.00000   0.00000   0.00000
 0 29 2464425.2    4.1   0.000000000   0.00000   0.00000   0.00000   0.00000
 1  2 2316970.8    4.3   0.015320799   0.00435   0.00000   0.00000   0.06598
 1  3 2316970.8    4.3   0.000000001   0.00000   0.00000   0.00000   0.00001
 1  4 2371429.4    4.2   0.000000000   0.00000   0.00000   0.00000   0.00000
 1  5 2371429.4    4.2   0.000000000   0.00000   0.00000   0.00000   0.00000
 1  6 2371429.4    4.2   0.000000000   0.00000   0.00000   0.00000   0.00000
 1  7 2371429.4    4.2   0.000000000   0.00000   0.00000   0.00000   0.00000
 1  8 2375571.0    4.2   0.000000312   0.00000   0.00000   0.00000   0.00029
 1  9 2375571.0    4.2   0.000000000   0.00000   0.00000   0.00000   0.00001
 1 10 2405853.4    4.2   0.000000000   0.00000   0.00000   0.00000   0.00000
 1 11 2405853.4    4.2   0.000000000   0.00000   0.00000   0.00000   0.00000
 1 12 2426519.9    4.1   0.000000000   0.00000   0.00000   0.00000   0.00000
 1 13 2426519.9    4.1   0.000000000   0.00000   0.00000   0.00000   0.00000
 1 14 2426519.9    4.1   0.000000000   0.00000   0.00000   0.00000   0.00000
 1 15 2426519.9    4.1   0.000000000   0.00000   0.00000   0.00000   0.00000
 1 16 2427972.0    4.1   0.000000000   0.00000   0.00000   0.00000   0.00000
 1 17 2427972.0    4.1   0.000000011   0.00000   0.00000   0.00000   0.00005
 1 18 2451799.4    4.1   0.000000000   0.00000   0.00000   0.00000   0.00000
 1 19 2451799.4    4.1   0.000000000   0.00000   0.00000   0.00000   0.00000
 1 20 2451799.4    4.1   0.000000000   0.00000   0.00000   0.00000   0.00000
 1 21 2451799.4    4.1   0.000000000   0.00000   0.00000   0.00000   0.00000
 1 22 2464053.2    4.1   0.000000000   0.00000   0.00000   0.00000   0.00000
 1 23 2464053.2    4.1   0.000000000   0.00000   0.00000   0.00000   0.00000
 1 24 2464053.2    4.1   0.000000000   0.00000   0.00000   0.00000   0.00000
 1 25 2464053.2    4.1   0.000000000   0.00000   0.00000   0.00000   0.00000
 1 26 2464425.2    4.1   0.000000000   0.00000   0.00000   0.00000   0.00000
 1 27 2464425.2    4.1   0.000000000   0.00000   0.00000   0.00000   0.00000
 1 28 2464425.2    4.1   0.000000000   0.00000   0.00000   0.00000   0.00000
 1 29 2464425.2    4.1   0.000000000   0.00000   0.00000   0.00000   0.00000

FINAL SINGLE POINT ENERGY      -379.732339448746

DIPOLE MOMENT
-------------
                                X             Y             Z
Electronic contribution:     -0.00000      -0.00000      -0.00000
Nuclear contribution   :     -0.00000       0.00000       0.00000
                        -----------------------------------------
Total Dipole Moment    :     -0.00000      -0.00000      -0.00000
                        -----------------------------------------
Magnitude (a.u.)       :      0.00000
Magnitude (Debye)      :      0.00000

Rotational constants in cm-1:     0.153862     0.023555     0.020428
Rotational constants in MHz :  4612.665232   706.155435   612.402415

                             ****ORCA TERMINATED NORMALLY****
TOTAL RUN TIME: 0 days 0 hours 0 minutes 41 seconds 790 msec
