                         Program Version 4.2.1 -  RELEASE  -
|  1> ! NMR B3LYP sto-3g autoaux noautostart
|  2>
|  3> * xyz 0 1
|  4>  C       -1.4152533224   0.2302217854   0.0000000000
|  5>  C        1.4152533224  -0.2302217854   0.0000000000
|  6>  C       -0.4951331558   1.3144608674   0.0000000000
|  7>  C        0.4951331558  -1.3144608674   0.0000000000
|  8>  C        0.8894090436   1.0909493743   0.0000000000
|  9>  C       -0.8894090436  -1.0909493743   0.0000000000
| 10>  H       -0.8795511985   2.3437343748   0.0000000000
| 11>  H        0.8795511985  -2.3437343748   0.0000000000
| 12>  H        1.5779041557   1.9450061275   0.0000000000
| 13>  H       -1.5779041557  -1.9450061275   0.0000000000
| 14>  C        2.8845844962  -0.5210893778   0.0000000000
| 15>  C       -2.8845844962   0.5210893778   0.0000000000
| 16>  H        3.1403356810  -1.5919605685   0.0000000000
| 17>  H       -3.1403356810   1.5919605685   0.0000000000
| 18>  C        3.8800428103   0.3822535424   0.0000000000
| 19>  C       -3.8800428103  -0.3822535424   0.0000000000
| 20>  H        3.6946765858   1.4624389570   0.0000000000
| 21>  H       -3.6946765858  -1.4624389570   0.0000000000
| 22>  H        4.9316453546   0.0711049543   0.0000000000
| 23>  H       -4.9316453546  -0.0711049543   0.0000000000
| 24> *
| 25>
| 26>                          ****END OF INPUT****

CARTESIAN COORDINATES (ANGSTROEM)
---------------------------------
  C     -1.415253    0.230222    0.000000
  C      1.415253   -0.230222    0.000000
  C     -0.495133    1.314461    0.000000
  C      0.495133   -1.314461    0.000000
  C      0.889409    1.090949    0.000000
  C     -0.889409   -1.090949    0.000000
  H     -0.879551    2.343734    0.000000
  H      0.879551   -2.343734    0.000000
  H      1.577904    1.945006    0.000000
  H     -1.577904   -1.945006    0.000000
  C      2.884584   -0.521089    0.000000
  C     -2.884584    0.521089    0.000000
  H      3.140336   -1.591961    0.000000
  H     -3.140336    1.591961    0.000000
  C      3.880043    0.382254    0.000000
  C     -3.880043   -0.382254    0.000000
  H      3.694677    1.462439    0.000000
  H     -3.694677   -1.462439    0.000000
  H      4.931645    0.071105    0.000000
  H     -4.931645   -0.071105    0.000000

 Total Charge           Charge          ....    0
 Multiplicity           Mult            ....    1
 Number of Electrons    NEL             ....   70
 Basis Dimension        Dim             ....   60

ORBITAL ENERGIES
----------------

  NO   OCC          E(Eh)            E(eV)
   0   2.0000     -10.016097      -272.5519
   1   2.0000     -10.016049      -272.5505
   2   2.0000     -10.004154      -272.2269
   3   2.0000     -10.004153      -272.2268
   4   2.0000     -10.003031      -272.1963
   5   2.0000     -10.003029      -272.1962
   6   2.0000     -10.002387      -272.1788
   7   2.0000     -10.002244      -272.1749
   8   2.0000      -9.988406      -271.7983
   9   2.0000      -9.988405      -271.7983
  10   2.0000      -0.805815       -21.9273
  11   2.0000      -0.750313       -20.4171
  12   2.0000      -0.714223       -19.4350
  13   2.0000      -0.696274       -18.9466
  14   2.0000      -0.663626       -18.0582
  15   2.0000      -0.584900       -15.9159
  16   2.0000      -0.555459       -15.1148
  17   2.0000      -0.527894       -14.3647
  18   2.0000      -0.506306       -13.7773
  19   2.0000      -0.454008       -12.3542
  20   2.0000      -0.435562       -11.8522
  21   2.0000      -0.407453       -11.0874
  22   2.0000      -0.394069       -10.7232
  23   2.0000      -0.392405       -10.6779
  24   2.0000      -0.370809       -10.0902
  25   2.0000      -0.347374        -9.4525
  26   2.0000      -0.343439        -9.3454
  27   2.0000      -0.320833        -8.7303
  28   2.0000      -0.307473        -8.3668
  29   2.0000      -0.289375        -7.8743
  30   2.0000      -0.283884        -7.7249
  31   2.0000      -0.259772        -7.0688
  32   2.0000      -0.208586        -5.6759
  33   2.0000      -0.191512        -5.2113
  34   2.0000      -0.149231        -4.0608
  35   0.0000       0.041205         1.1212
  36   0.0000       0.093857         2.5540
  37   0.0000       0.114440         3.1141
  38   0.0000       0.185909         5.0588
  39   0.0000       0.276036         7.5113

MULLIKEN ATOMIC CHARGES
-----------------------
   0 C :   -0.004786
   1 C :   -0.004786
   2 C :   -0.076182
   3 C :   -0.076182
   4 C :   -0.076714
   5 C :   -0.076714
   6 H :    0.077558
   7 H :    0.077558
   8 H :    0.079031
   9 H :    0.079031
  10 C :   -0.075766
  11 C :   -0.075766
  12 H :    0.076207
  13 H :    0.076207
  14 C :   -0.154124
  15 C :   -0.154124
  16 H :    0.075743
  17 H :    0.075743
  18 H :    0.079033
  19 H :    0.079033
Sum of atomic charges:   -0.0000000

LOEWDIN ATOMIC CHARGES
----------------------
   0 C :    0.003404
   1 C :    0.003404
   2 C :   -0.043531
   3 C :   -0.043531
   4 C :   -0.043885
   5 C :   -0.043885
   6 H :    0.041893
   7 H :    0.041893
   8 H :    0.043540
   9 H :    0.043540
  10 C :   -0.038573
  11 C :   -0.038573
  12 H :    0.040679
  13 H :    0.040679
  14 C :   -0.091147
  15 C :   -0.091147
  16 H :    0.042767
  17 H :    0.042767
  18 H :    0.044853
  19 H :    0.044853

  Mayer bond orders larger than 0.100000
B(  0-C ,  2-C ) :   1.3630 B(  0-C ,  5-C ) :   1.3651 B(  0-C , 11-C ) :   1.0665
B(  1-C ,  3-C ) :   1.3630 B(  1-C ,  4-C ) :   1.3651 B(  1-C , 10-C ) :   1.0665
B(  2-C ,  4-C ) :   1.4652 B(  2-C ,  6-H ) :   0.9614 B(  3-C ,  5-C ) :   1.4652
B(  3-C ,  7-H ) :   0.9614 B(  4-C ,  5-C ) :   0.1022 B(  4-C ,  8-H ) :   0.9595
B(  5-C ,  9-H ) :   0.9595 B( 10-C , 12-H ) :   0.9592 B( 10-C , 14-C ) :   1.9012
B( 11-C , 13-H ) :   0.9592 B( 11-C , 15-C ) :   1.9012 B( 14-C , 16-H ) :   0.9665
B( 14-C , 18-H ) :   0.9693 B( 15-C , 17-H ) :   0.9665 B( 15-C , 19-H ) :   0.9693

FINAL SINGLE POINT ENERGY      -382.050737150728

DIPOLE MOMENT
-------------
                                X             Y             Z
Electronic contribution:      0.00000      -0.00000      -0.00000
Nuclear contribution   :      0.00000       0.00000       0.00000
                        -----------------------------------------
Total Dipole Moment    :      0.00000      -0.00000      -0.00000
                        -----------------------------------------
Magnitude (a.u.)       :      0.00000
Magnitude (Debye)      :      0.00000

Rotational constants in cm-1:     0.153923     0.022856     0.019901
Rotational constants in MHz :  4614.497946   685.205544   596.614430

CHEMICAL SHIELDING SUMMARY (ppm)
--------------------------------

  Nucleus  Element    Isotropic     Anisotropy
  -------  -------  ------------   ------------
      0       C          114.054        147.521
      1       C          114.054        147.521
      2       C          117.720        132.276
      3       C          117.720        132.276
      4       C          121.195        142.258
      5       C          121.195        142.258
      6       H           25.568          4.987
      7       H           25.568          4.987
      8       H           25.143          5.790
      9       H           25.143          5.790
     10       C          116.076        117.252
     11       C          116.076        117.252
     12       H           26.078          5.519
     13       H           26.078          5.519
     14       C          128.474        126.078
     15       C          128.474        126.078
     16       H           26.790          6.539
     17       H           26.790          6.539
     18       H           27.124          5.190
     19       H           27.124          5.190

                             ****ORCA TERMINATED NORMALLY****
TOTAL RUN TIME: 0 days 0 hours 0 minutes 9 seconds 421 msec
