                         Program Version 4.2.0 -  RELEASE  -
|  1> ! ccsd(t) sto-3g noautostart
|  2>
|  3> *xyz 0 1
|  4>   O      1.784914    1.262422    0.511985
|  5>   H      2.648237    1.072929    0.131631
|  6>   H      1.183168    1.256816   -0.238835
|  7> *
|  8>
|  9>                          ****END OF INPUT****

CARTESIAN COORDINATES (ANGSTROEM)
---------------------------------
  O      1.784914    1.262422    0.511985
  H      2.648237    1.072929    0.131631
  H      1.183168    1.256816   -0.238835

 Total Charge           Charge          ....    0
 Multiplicity           Mult            ....    1
 Number of Electrons    NEL             ....   10
 Basis Dimension        Dim             ....    7

ORBITAL ENERGIES
----------------

  NO   OCC          E(Eh)            E(eV)
   0   2.0000     -20.242233      -550.8192
   1   2.0000      -1.265747       -34.4427
   2   2.0000      -0.615339       -16.7442
   3   2.0000      -0.452291       -12.3075
   4   2.0000      -0.390844       -10.6354
   5   0.0000       0.600569        16.3423
   6   0.0000       0.736617        20.0444

E(0)                                       ...    -74.963574242
E(0)                                       ...    -74.963574242
E(CORR)                                    ...     -0.049913571
E(TOT)                                     ...    -75.013487814
E(CCSD(T))                                 ...    -75.013556310

MULLIKEN ATOMIC CHARGES
-----------------------
   0 O :   -0.329397
   1 H :    0.164693
   2 H :    0.164703
Sum of atomic charges:   -0.0000000

LOEWDIN ATOMIC CHARGES
----------------------
   0 O :   -0.222996
   1 H :    0.111495
   2 H :    0.111500

  Mayer bond orders larger than 0.100000
B(  0-O ,  1-H ) :   0.9101 B(  0-O ,  2-H ) :   0.9101

FINAL SINGLE POINT ENERGY       -75.013556309605

DIPOLE MOMENT
-------------
                                X             Y             Z
Electronic contribution:     -0.07774       0.05797       0.33609
Nuclear contribution   :      0.21773      -0.16239      -0.94154
                        -----------------------------------------
Total Dipole Moment    :      0.13999      -0.10442      -0.60545
                        -----------------------------------------
Magnitude (a.u.)       :      0.63014
Magnitude (Debye)      :      1.60168

Rotational constants in cm-1:    27.172637    14.432751     9.426085
Rotational constants in MHz : 814615.168427 432682.991980 282586.906303

                             ****ORCA TERMINATED NORMALLY****
TOTAL RUN TIME: 0 days 0 hours 0 minutes 0 seconds 928 msec
