                         Program Version 5.0.4 -  RELEASE  -
|  1> ! hf sto-3g sp noautostart
|  2>
|  3> %coords
|  4>  ctyp internal
|  5>  charge 0
|  6>  mult 1
|  7>  pardef
|  8>    royl=1.4;
|  9>    row=2.501;
| 10>    roh=0.968;
| 11>    aoh=126.6;
| 12>    oylMDA=0.
| 13>    end
| 14>  coords
| 15>    C      0   0   0     0.000000   0.0000000     0.00000000
| 16>    DA     1   0   0     1.000000   0.0000000     0.00000000
| 17>    DA     1   2   0     1.000000  90.0000000     0.00000000
| 18>    DA     1   2   3     1.000000  90.0000000   270.00000000
| 19>    O      1   2   4     {royl}   {OylMDA}        0.00000000
| 20>    O      1   2   4     {royl}   {180.-OylMDA}   0.00000000
| 21>    O      1   2   4     {row}    90.00000000     0.00000000
| 22>    H      7   1   2     {roh}   {aoh}            0.00000000
| 23>    H      7   1   2     {roh}   {aoh}          180.00000000
| 24>    end
| 25>  end
| 26>
| 27>                          ****END OF INPUT****

CARTESIAN COORDINATES (ANGSTROEM)
---------------------------------
  C      0.000000    0.000000    0.000000
  -      1.000000    0.000000    0.000000
  -      0.000000    1.000000    0.000000
  -      0.000000   -0.000000    1.000000
  O      1.400000    0.000000    0.000000
  O     -1.400000   -0.000000    0.000000
  O      0.000000   -0.000000    2.501000
  H      0.777127   -0.000000    3.078146
  H     -0.777127   -0.000000    3.078146

 Total Charge           Charge          ....    0
 Multiplicity           Mult            ....    1
 Number of Electrons    NEL             ....   32
 Basis Dimension        Dim             ....   22

ORBITAL ENERGIES
----------------

  NO   OCC          E(Eh)            E(eV)
   0   2.0000     -20.282187      -551.9064
   1   2.0000     -20.281937      -551.8996
   2   2.0000     -20.258609      -551.2648
   3   2.0000     -11.198043      -304.7142
   4   2.0000      -1.280311       -34.8390
   5   2.0000      -1.263933       -34.3934
   6   2.0000      -1.221997       -33.2522
   7   2.0000      -0.662595       -18.0301
   8   2.0000      -0.632183       -17.2026
   9   2.0000      -0.499575       -13.5941
  10   2.0000      -0.487418       -13.2633
  11   2.0000      -0.475028       -12.9262
  12   2.0000      -0.439683       -11.9644
  13   2.0000      -0.407711       -11.0944
  14   2.0000      -0.331957        -9.0330
  15   2.0000      -0.327817        -8.9203
  16   0.0000       0.225563         6.1379
  17   0.0000       0.233414         6.3515
  18   0.0000       0.387752        10.5513
  19   0.0000       0.580675        15.8010
  20   0.0000       0.720268        19.5995

MULLIKEN ATOMIC CHARGES
-----------------------
   0 C :    0.352898
   1  -:    0.000000
   2  -:    0.000000
   3  -:    0.000000
   4 O :   -0.184129
   5 O :   -0.184129
   6 O :   -0.367116
   7 H :    0.191238
   8 H :    0.191238
Sum of atomic charges:   -0.0000000

LOEWDIN ATOMIC CHARGES
----------------------
   0 C :    0.327973
   1  -:    0.000000
   2  -:    0.000000
   3  -:    0.000000
   4 O :   -0.172061
   5 O :   -0.172061
   6 O :   -0.252957
   7 H :    0.134553
   8 H :    0.134553

  Mayer bond orders larger than 0.100000
B(  0-C ,  4-O ) :   1.8230 B(  0-C ,  5-O ) :   1.8230 B(  4-O ,  5-O ) :   0.2928
B(  6-O ,  7-H ) :   0.9475 B(  6-O ,  8-H ) :   0.9475

FINAL SINGLE POINT ENERGY      -259.909828276323

DIPOLE MOMENT
-------------
                                X             Y             Z
Electronic contribution:      0.00000       0.00000      -3.58921
Nuclear contribution   :      0.00000      -0.00000       4.38139
                        -----------------------------------------
Total Dipole Moment    :      0.00000       0.00000       0.79218
                        -----------------------------------------
Magnitude (a.u.)       :      0.79218
Magnitude (Debye)      :      2.01357

Rotational constants in cm-1:     0.263674     0.198948     0.113392
Rotational constants in MHz :  7904.755979  5964.318355  3399.396387

                             ****ORCA TERMINATED NORMALLY****
TOTAL RUN TIME: 0 days 0 hours 0 minutes 0 seconds 325 msec
