                         Program Version 5.0.3 -  RELEASE  -
|  1> ! STO-3G PBE OPT MINIPRINT LOOSEOPT
|  2>
|  3> %geom
|  4>   MaxIter 2
|  5> end
|  6>
|  7> * xyz 1 2
|  8> C        5.64548550       5.80995257       5.64347063
|  9> H        6.68786928       5.48595277       5.60659569
| 10> H        5.00000000       5.00000000       5.29673621
| 11> H        5.38164039       6.07147067       6.67055068
| 12> H        5.51243226       6.68238700       5.00000000
| 13> *
| 14>
| 15>                          ****END OF INPUT****

ORBITAL ENERGIES
----------------
                 SPIN UP ORBITALS
  NO   OCC          E(Eh)            E(eV)
   0   1.0000     -10.182394      -277.0770
   1   1.0000      -1.028959       -27.9994
   2   1.0000      -0.763727       -20.7821
   3   1.0000      -0.732111       -19.9217
   4   1.0000      -0.732110       -19.9217
   5   0.0000      -0.027395        -0.7454
   6   0.0000      -0.008213        -0.2235
   7   0.0000      -0.008213        -0.2235
   8   0.0000       0.032031         0.8716

                 SPIN DOWN ORBITALS
  NO   OCC          E(Eh)            E(eV)
   0   1.0000     -10.175586      -276.8918
   1   1.0000      -0.992374       -27.0039
   2   1.0000      -0.710706       -19.3393
   3   1.0000      -0.710706       -19.3393
   4   0.0000      -0.697728       -18.9861
   5   0.0000       0.015573         0.4238
   6   0.0000       0.015573         0.4238
   7   0.0000       0.031581         0.8594
   8   0.0000       0.066983         1.8227
Total SCF time: 0 days 0 hours 0 min 2 sec

FINAL SINGLE POINT ENERGY       -39.461545186352

CARTESIAN COORDINATES (ANGSTROEM)
---------------------------------
  C      5.645487    5.809950    5.643470
  H      6.731027    5.459688    5.532205
  H      4.994497    4.918685    5.334734
  H      5.300869    6.100755    6.697099
  H      5.555547    6.760685    5.009845

FINAL SINGLE POINT ENERGY       -39.497696442138

DIPOLE MOMENT
-------------
                                X             Y             Z
Electronic contribution:      0.00006      -0.00004      -0.00001
Nuclear contribution   :     -0.00002       0.00002       0.00001
                        -----------------------------------------
Total Dipole Moment    :      0.00004      -0.00002       0.00000
                        -----------------------------------------
Magnitude (a.u.)       :      0.00004
Magnitude (Debye)      :      0.00011

Rotational constants in cm-1:     5.134825     5.134795     3.849916
Rotational constants in MHz : 153938.179437 153937.290343 115417.576726

                             ****ORCA TERMINATED NORMALLY****
TOTAL RUN TIME: 0 days 0 hours 0 minutes 4 seconds 176 msec
