                         Program Version 5.0.3 -  RELEASE  -
|  1> ! STEOM-DLPNO-CCSD NOCOSX cc-pVDZ/C cc-pVDZ NormalPNO TightSCF
|  2> %Pal NProcs 8 end
|  3> %MaxCore 5000
|  4> %SCF
|  5>     AutoTRAH    True
|  6>     CNVDamp     False
|  7>     CNVZerner   False
|  8>     end
|  9> %mdci
| 10>     MaxIter     200
| 11>     NRoots      2
| 12>     DoTriplet   true
| 13>     STEOMSOC    false
| 14>     DoDbfilter  false
| 15>     DoSTEOMNatTransOrb  True
| 16>     DoStoreSTEOM        True
| 17>     end
| 18> *xyz 0 1
| 19> C             4.68216000     2.46369000    -0.93778000
| 20> C             4.06346000     3.67035000    -0.59965000
| 21> C             2.76491000     3.64530000    -0.12994000
| 22> C             2.08756000     2.43388000     0.04788000
| 23> C             2.74194000     1.21667000    -0.21377000
| 24> C             4.03548000     1.25257000    -0.75598000
| 25> N             2.06526000    -0.00000000     0.00000000
| 26> C             2.74194000    -1.21667000     0.21377000
| 27> C             0.67600000     0.00000000     0.00000000
| 28> C            -0.04373000     1.19344000     0.19857000
| 29> C            -1.43535000     1.17426000     0.20383000
| 30> C            -2.16259000     0.00000000    -0.00000000
| 31> C            -1.43535000    -1.17425000    -0.20383000
| 32> C            -0.04373000    -1.19344000    -0.19857000
| 33> C             4.68215000    -2.46369000     0.93778000
| 34> C             4.03548000    -1.25258000     0.75599000
| 35> C             2.08756000    -2.43388000    -0.04788000
| 36> C             2.76491000    -3.64530000     0.12993000
| 37> C             4.06346000    -3.67035000     0.59965000
| 38> C             0.65706000     2.47191000     0.39213000
| 39> C             0.65706000    -2.47190000    -0.39214000
| 40> O             0.08168000    -3.49854000    -0.72836000
| 41> O             0.08168000     3.49855000     0.72835000
| 42> C            -3.63859000     0.00000000    -0.00000000
| 43> C            -4.35567000     0.84874000     0.85223000
| 44> C            -5.74426000     0.85605000     0.85745000
| 45> C            -6.41881000    -0.00000000     0.00000000
| 46> C            -5.74426000    -0.85605000    -0.85745000
| 47> C            -4.35567000    -0.84874000    -0.85223000
| 48> F            -7.75790000    -0.00000000     0.00000000
| 49> H             5.67978000     2.46557000    -1.36660000
| 50> H             4.58370000     4.61230000    -0.73837000
| 51> H             2.21269000     4.55228000     0.09519000
| 52> H             4.52209000     0.33426000    -1.05990000
| 53> H            -1.93192000     2.12834000     0.35456000
| 54> H            -1.93192000    -2.12833000    -0.35456000
| 55> H             5.67978000    -2.46557000     1.36661000
| 56> H             4.52208000    -0.33426000     1.05991000
| 57> H             2.21270000    -4.55228000    -0.09520000
| 58> H             4.58369000    -4.61230000     0.73837000
| 59> H            -3.81980000     1.49714000     1.53896000
| 60> H            -6.30712000     1.50410000     1.52018000
| 61> H            -6.30712000    -1.50410000    -1.52018000
| 62> H            -3.81980000    -1.49713000    -1.53896000
| 63> **                         ****END OF INPUT****

CARTESIAN COORDINATES (ANGSTROEM)
---------------------------------
  C      4.682160    2.463690   -0.937780
  C      4.063460    3.670350   -0.599650
  C      2.764910    3.645300   -0.129940
  C      2.087560    2.433880    0.047880
  C      2.741940    1.216670   -0.213770
  C      4.035480    1.252570   -0.755980
  N      2.065260   -0.000000    0.000000
  C      2.741940   -1.216670    0.213770
  C      0.676000    0.000000    0.000000
  C     -0.043730    1.193440    0.198570
  C     -1.435350    1.174260    0.203830
  C     -2.162590    0.000000   -0.000000
  C     -1.435350   -1.174250   -0.203830
  C     -0.043730   -1.193440   -0.198570
  C      4.682150   -2.463690    0.937780
  C      4.035480   -1.252580    0.755990
  C      2.087560   -2.433880   -0.047880
  C      2.764910   -3.645300    0.129930
  C      4.063460   -3.670350    0.599650
  C      0.657060    2.471910    0.392130
  C      0.657060   -2.471900   -0.392140
  O      0.081680   -3.498540   -0.728360
  O      0.081680    3.498550    0.728350
  C     -3.638590    0.000000   -0.000000
  C     -4.355670    0.848740    0.852230
  C     -5.744260    0.856050    0.857450
  C     -6.418810   -0.000000    0.000000
  C     -5.744260   -0.856050   -0.857450
  C     -4.355670   -0.848740   -0.852230
  F     -7.757900   -0.000000    0.000000
  H      5.679780    2.465570   -1.366600
  H      4.583700    4.612300   -0.738370
  H      2.212690    4.552280    0.095190
  H      4.522090    0.334260   -1.059900
  H     -1.931920    2.128340    0.354560
  H     -1.931920   -2.128330   -0.354560
  H      5.679780   -2.465570    1.366610
  H      4.522080   -0.334260    1.059910
  H      2.212700   -4.552280   -0.095200
  H      4.583690   -4.612300    0.738370
  H     -3.819800    1.497140    1.538960
  H     -6.307120    1.504100    1.520180
  H     -6.307120   -1.504100   -1.520180
  H     -3.819800   -1.497130   -1.538960

 Total Charge           Charge          ....    0
 Multiplicity           Mult            ....    1
 Number of Electrons    NEL             ....  202
 Basis Dimension        Dim             ....  490

ORBITAL ENERGIES
----------------

  NO   OCC          E(Eh)            E(eV)
   0   2.0000     -26.311674      -715.9770
   1   2.0000     -20.545104      -559.0607
   2   2.0000     -20.545103      -559.0607
   3   2.0000     -15.650544      -425.8730
   4   2.0000     -11.346128      -308.7438
   5   2.0000     -11.346127      -308.7438
   6   2.0000     -11.333243      -308.3932
   7   2.0000     -11.330393      -308.3157
   8   2.0000     -11.325907      -308.1936
   9   2.0000     -11.325887      -308.1931
  10   2.0000     -11.274008      -306.7814
  11   2.0000     -11.273949      -306.7797
  12   2.0000     -11.272129      -306.7302
  13   2.0000     -11.272127      -306.7302
  14   2.0000     -11.264670      -306.5272
  15   2.0000     -11.264669      -306.5272
  16   2.0000     -11.263539      -306.4965
  17   2.0000     -11.261862      -306.4509
  18   2.0000     -11.261857      -306.4507
  19   2.0000     -11.260629      -306.4173
  20   2.0000     -11.260610      -306.4168
  21   2.0000     -11.260114      -306.4033
  22   2.0000     -11.260114      -306.4033
  23   2.0000     -11.259489      -306.3863
  24   2.0000     -11.257942      -306.3442
  25   2.0000     -11.257513      -306.3325
  26   2.0000     -11.254702      -306.2560
  27   2.0000     -11.254701      -306.2560
  28   2.0000     -11.251587      -306.1712
  29   2.0000     -11.251568      -306.1707
  30   2.0000      -1.631706       -44.4010
  31   2.0000      -1.387425       -37.7538
  32   2.0000      -1.385831       -37.7104
  33   2.0000      -1.345882       -36.6233
  34   2.0000      -1.197683       -32.5906
  35   2.0000      -1.190325       -32.3904
  36   2.0000      -1.174112       -31.9492
  37   2.0000      -1.159792       -31.5595
  38   2.0000      -1.095770       -29.8174
  39   2.0000      -1.090371       -29.6705
  40   2.0000      -1.055845       -28.7310
  41   2.0000      -1.049238       -28.5512
  42   2.0000      -1.044848       -28.4318
  43   2.0000      -1.037620       -28.2351
  44   2.0000      -1.030040       -28.0288
  45   2.0000      -1.001231       -27.2449
  46   2.0000      -0.925641       -25.1880
  47   2.0000      -0.903649       -24.5895
  48   2.0000      -0.892707       -24.2918
  49   2.0000      -0.888205       -24.1693
  50   2.0000      -0.863888       -23.5076
  51   2.0000      -0.844379       -22.9767
  52   2.0000      -0.835429       -22.7332
  53   2.0000      -0.826747       -22.4969
  54   2.0000      -0.781068       -21.2539
  55   2.0000      -0.766970       -20.8703
  56   2.0000      -0.758147       -20.6302
  57   2.0000      -0.753244       -20.4968
  58   2.0000      -0.747093       -20.3294
  59   2.0000      -0.707487       -19.2517
  60   2.0000      -0.702077       -19.1045
  61   2.0000      -0.692413       -18.8415
  62   2.0000      -0.684964       -18.6388
  63   2.0000      -0.679008       -18.4767
  64   2.0000      -0.673941       -18.3389
  65   2.0000      -0.667332       -18.1590
  66   2.0000      -0.659427       -17.9439
  67   2.0000      -0.641810       -17.4645
  68   2.0000      -0.636285       -17.3142
  69   2.0000      -0.631694       -17.1893
  70   2.0000      -0.627603       -17.0780
  71   2.0000      -0.624634       -16.9971
  72   2.0000      -0.618761       -16.8373
  73   2.0000      -0.612348       -16.6628
  74   2.0000      -0.607486       -16.5305
  75   2.0000      -0.597994       -16.2723
  76   2.0000      -0.593074       -16.1384
  77   2.0000      -0.590767       -16.0756
  78   2.0000      -0.568898       -15.4805
  79   2.0000      -0.556583       -15.1454
  80   2.0000      -0.548794       -14.9334
  81   2.0000      -0.541627       -14.7384
  82   2.0000      -0.535295       -14.5661
  83   2.0000      -0.530850       -14.4452
  84   2.0000      -0.528872       -14.3913
  85   2.0000      -0.523168       -14.2361
  86   2.0000      -0.517561       -14.0836
  87   2.0000      -0.512128       -13.9357
  88   2.0000      -0.507199       -13.8016
  89   2.0000      -0.501988       -13.6598
  90   2.0000      -0.470558       -12.8045
  91   2.0000      -0.432202       -11.7608
  92   2.0000      -0.422134       -11.4868
  93   2.0000      -0.382694       -10.4136
  94   2.0000      -0.374792       -10.1986
  95   2.0000      -0.365526        -9.9465
  96   2.0000      -0.358144        -9.7456
  97   2.0000      -0.356330        -9.6962
  98   2.0000      -0.355561        -9.6753
  99   2.0000      -0.325599        -8.8600
 100   2.0000      -0.289588        -7.8801
 101   0.0000       0.033336         0.9071
 102   0.0000       0.077068         2.0971
 103   0.0000       0.084543         2.3005
 104   0.0000       0.094716         2.5774
 105   0.0000       0.113814         3.0970

MULLIKEN ATOMIC CHARGES
-----------------------
   0 C :    0.030081
   1 C :   -0.012442
   2 C :    0.082161
   3 C :   -0.257612
   4 C :    0.239869
   5 C :   -0.055980
   6 N :   -0.729654
   7 C :    0.239863
   8 C :    0.344081
   9 C :   -0.257958
  10 C :    0.125909
  11 C :   -0.053616
  12 C :    0.125911
  13 C :   -0.257957
  14 C :    0.030075
  15 C :   -0.055974
  16 C :   -0.257612
  17 C :    0.082162
  18 C :   -0.012438
  19 C :    0.459034
  20 C :    0.459035
  21 O :   -0.372194
  22 O :   -0.372194
  23 C :   -0.059355
  24 C :    0.000108
  25 C :   -0.032089
  26 C :    0.255714
  27 C :   -0.032089
  28 C :    0.000113
  29 F :   -0.278607
  30 H :    0.038189
  31 H :    0.033922
  32 H :    0.050564
  33 H :    0.058457
  34 H :    0.048547
  35 H :    0.048546
  36 H :    0.038193
  37 H :    0.058458
  38 H :    0.050560
  39 H :    0.033920
  40 H :    0.035523
  41 H :    0.046627
  42 H :    0.046627
  43 H :    0.035520
Sum of atomic charges:   -0.0000000

LOEWDIN ATOMIC CHARGES
----------------------
   0 C :    0.010621
   1 C :   -0.043086
   2 C :    0.039543
   3 C :   -0.088196
   4 C :    0.021484
   5 C :   -0.049656
   6 N :    0.121185
   7 C :    0.021485
   8 C :    0.042125
   9 C :   -0.097649
  10 C :    0.071683
  11 C :   -0.050564
  12 C :    0.071680
  13 C :   -0.097649
  14 C :    0.010615
  15 C :   -0.049657
  16 C :   -0.088195
  17 C :    0.039544
  18 C :   -0.043085
  19 C :    0.007919
  20 C :    0.007918
  21 O :   -0.127470
  22 O :   -0.127470
  23 C :   -0.039955
  24 C :   -0.002143
  25 C :   -0.042492
  26 C :    0.010000
  27 C :   -0.042491
  28 C :   -0.002142
  29 F :   -0.012618
  30 H :    0.036152
  31 H :    0.032286
  32 H :    0.044255
  33 H :    0.035521
  34 H :    0.044405
  35 H :    0.044405
  36 H :    0.036155
  37 H :    0.035522
  38 H :    0.044253
  39 H :    0.032285
  40 H :    0.033832
  41 H :    0.037907
  42 H :    0.037907
  43 H :    0.033830

  Mayer bond orders larger than 0.100000
B(  0-C ,  1-C ) :   1.4059 B(  0-C ,  5-C ) :   1.5140 B(  0-C , 30-H ) :   0.9683
B(  1-C ,  2-C ) :   1.5024 B(  1-C , 31-H ) :   0.9736 B(  2-C ,  3-C ) :   1.4137
B(  2-C , 32-H ) :   0.9496 B(  3-C ,  4-C ) :   1.3665 B(  3-C , 19-C ) :   1.0282
B(  4-C ,  5-C ) :   1.4001 B(  4-C ,  6-N ) :   0.9948 B(  5-C , 33-H ) :   0.9564
B(  6-N ,  7-C ) :   0.9948 B(  6-N ,  8-C ) :   1.0347 B(  7-C , 15-C ) :   1.4001
B(  7-C , 16-C ) :   1.3665 B(  8-C ,  9-C ) :   1.3120 B(  8-C , 13-C ) :   1.3120
B(  9-C , 10-C ) :   1.4468 B(  9-C , 19-C ) :   1.0249 B( 10-C , 11-C ) :   1.4113
B( 10-C , 34-H ) :   0.9425 B( 11-C , 12-C ) :   1.4113 B( 11-C , 23-C ) :   1.0565
B( 12-C , 13-C ) :   1.4468 B( 12-C , 35-H ) :   0.9425 B( 13-C , 20-C ) :   1.0249
B( 14-C , 15-C ) :   1.5140 B( 14-C , 18-C ) :   1.4059 B( 14-C , 36-H ) :   0.9683
B( 15-C , 37-H ) :   0.9564 B( 16-C , 17-C ) :   1.4137 B( 16-C , 20-C ) :   1.0282
B( 17-C , 18-C ) :   1.5024 B( 17-C , 38-H ) :   0.9496 B( 18-C , 39-H ) :   0.9736
B( 19-C , 22-O ) :   2.0516 B( 20-C , 21-O ) :   2.0516 B( 23-C , 24-C ) :   1.4330
B( 23-C , 28-C ) :   1.4330 B( 24-C , 25-C ) :   1.4601 B( 24-C , 40-H ) :   0.9673
B( 25-C , 26-C ) :   1.4310 B( 25-C , 41-H ) :   0.9611 B( 26-C , 27-C ) :   1.4310
B( 26-C , 29-F ) :   0.9734 B( 27-C , 28-C ) :   1.4601 B( 27-C , 42-H ) :   0.9611
B( 28-C , 43-H ) :   0.9673

E(0)                                       ...  -1296.491136201
E(0)                                       ...  -1296.491136201
E(CORR)(strong-pairs)                      ...     -4.086816448
E(CORR)(weak-pairs)                        ...     -0.029617901
E(CORR)(corrected)                         ...     -4.116434349
E(TOT)                                     ...  -1300.607570550
FINAL SINGLE POINT ENERGY     -1300.607570550126

DIPOLE MOMENT
-------------
                                X             Y             Z
Electronic contribution:    -15.21352       0.00362       0.00699
Nuclear contribution   :     17.01556       0.00001       0.00002
                        -----------------------------------------
Total Dipole Moment    :      1.80204       0.00363       0.00700
                        -----------------------------------------
Magnitude (a.u.)       :      1.80205
Magnitude (Debye)      :      4.58046

Rotational constants in cm-1:     0.008968     0.003119     0.002393
Rotational constants in MHz :   268.844439    93.501522    71.729247

                             ****ORCA TERMINATED NORMALLY****
TOTAL RUN TIME: 3 days 17 hours 29 minutes 31 seconds 377 msec
