 Gaussian 09, Revision C.01,
 Gaussian 09:  EM64L-G09RevC.01 23-Sep-2011

 ----------------------------------------------------------------------
 #p wB97XD/6-311++G** opt=(redundant,maxcycles=140) freq=noraman scrf=(
 solvent=water,smd) pop=(full,nbo) scf=(tight,maxcycle=70) integral=(ac
 c2e=12,grid=ultrafine)
 ----------------------------------------------------------------------

 (Enter //home/renato/Gaussian09/g09/l101.exe)
 -------------
 AcO-/AcO-.xyz
 -------------
 Charge = -1 Multiplicity = 1

 SCF Done:  E(RwB97XD) =  -228.635641085     A.U. after   13 cycles
 SCF Done:  E(RwB97XD) =  -228.635712062     A.U. after   12 cycles
 SCF Done:  E(RwB97XD) =  -228.628811710     A.U. after   13 cycles
 SCF Done:  E(RwB97XD) =  -228.635913962     A.U. after   13 cycles
 SCF Done:  E(RwB97XD) =  -228.636046903     A.U. after   11 cycles
 Optimization completed.
    -- Stationary point found.
 Normal termination of Gaussian 09 at Fri Aug 10 08:56:39 2018.

 ----------------------------------------------------------------------
 #P Geom=AllCheck Guess=TCheck SCRF=Check GenChk RwB97XD/6-311++G(d,p)
 Freq
 ----------------------------------------------------------------------

 Structure from the checkpoint file:  AcO-_0.chk
 -------------
 AcO-/AcO-.xyz
 -------------
 Charge = -1 Multiplicity = 1

                         Standard orientation:
 ---------------------------------------------------------------------
 Center     Atomic      Atomic             Coordinates (Angstroms)
 Number     Number       Type             X           Y           Z
 ---------------------------------------------------------------------
      1          6           0       -0.174905   -0.001738    0.000115
      2          6           0        1.346209   -0.040158   -0.000069
      3          1           0        1.727849   -1.061377   -0.003799
      4          1           0        1.723895    0.482710    0.882864
      5          1           0        1.724463    0.489589   -0.878669
      6          8           0       -0.804188   -1.094460   -0.000041
      7          8           0       -0.721316    1.137017   -0.000043
 ---------------------------------------------------------------------

 SCF Done:  E(RwB97XD) =  -228.636046903     A.U. after    1 cycles

 The electronic state is 1-A.
 Alpha  occ. eigenvalues --  -19.19532 -19.19361 -10.37861 -10.26261  -1.13692
 Alpha  occ. eigenvalues --   -1.04300  -0.81080  -0.59658  -0.52384  -0.52228
 Alpha  occ. eigenvalues --   -0.52216  -0.46400  -0.44097  -0.35003  -0.33921
 Alpha  occ. eigenvalues --   -0.32929
 Alpha virt. eigenvalues --    0.05518   0.08465   0.08866   0.09849   0.12214
 Alpha virt. eigenvalues --    0.13258   0.14310   0.14380   0.16670   0.17186
 Alpha virt. eigenvalues --    0.18552   0.19747   0.25840   0.27162   0.27302

 Mulliken atomic charges:
              1
     1  C    0.322469
     2  C   -0.570154
     3  H    0.159607
     4  H    0.191248
     5  H    0.190887
     6  O   -0.653496
     7  O   -0.640562
 Sum of Mulliken atomic charges =  -1.00000

 Dipole moment (field-independent basis, Debye):
    X=              6.1002    Y=             -0.1600    Z=              0.0012  Tot=              6.1023
 Quadrupole moment (field-independent basis, Debye-Ang):
   XX=            -30.3807   YY=            -36.2903   ZZ=            -24.8360
   XY=             -0.1205   XZ=              0.0008   YZ=              0.0000

  Exact polarizability:  47.571   1.301  59.116   0.008   0.000  35.034
 Approx polarizability:  33.123   0.938  43.817   0.006   0.000  26.966

 Summary of Natural Population Analysis:

                                       Natural Population
                Natural  -----------------------------------------------
    Atom  No    Charge         Core      Valence    Rydberg      Total
 -----------------------------------------------------------------------
      C    1    0.79378      1.99961     3.14688    0.05973     5.20622
      C    2   -0.70726      1.99925     4.69907    0.00893     6.70726
      H    3    0.21090      0.00000     0.78757    0.00152     0.78910
      H    4    0.22455      0.00000     0.77395    0.00150     0.77545
      H    5    0.22444      0.00000     0.77406    0.00151     0.77556
      O    6   -0.86843      1.99977     6.85518    0.01348     8.86843
      O    7   -0.87798      1.99978     6.86488    0.01332     8.87798
 =======================================================================
   * Total *   -1.00000      7.99841    23.90159    0.10000    32.00000

                     1                      2                      3
                     A                      A                      A
 Frequencies --    80.2535               471.1060               637.8206
 Red. masses --     1.0867                 3.1676                 2.3257
 Frc consts  --     0.0041                 0.4142                 0.5575
 IR Inten    --     0.1066                 1.6642                15.4445

                     4                      5                      6
                     A                      A                      A
 Frequencies --   650.0249               925.8214              1037.3310
 Red. masses --     6.4276                 6.2571                 1.4542
 Frc consts  --     1.6001                 3.1599                 0.9220
 IR Inten    --    49.8783                23.1787                26.1026

                     7                      8                      9
                     A                      A                      A
 Frequencies --  1063.3457              1362.5176              1421.4203
 Red. masses --     1.9527                 1.4676                 2.5362
 Frc consts  --     1.3009                 1.6053                 3.0191
 IR Inten    --    21.1268                33.2442               397.4903

                    10                     11                     12
                     A                      A                      A
 Frequencies --  1457.5449              1462.0886              1528.8111
 Red. masses --     1.5252                 1.0445                 4.9653
 Frc consts  --     1.9090                 1.3155                 6.8376
 IR Inten    --   348.6778                14.0434              1287.6151

                    13                     14                     15
                     A                      A                      A
 Frequencies --  3054.5981              3129.0397              3152.3619
 Red. masses --     1.0365                 1.1011                 1.1049
 Frc consts  --     5.6982                 6.3517                 6.4689
 IR Inten    --    10.2578                18.4463                36.6531

 - Thermochemistry -
 -------------------
 Temperature   298.150 Kelvin.  Pressure   1.00000 Atm.
 Atom     1 has atomic number  6 and mass  12.00000

 Molecular mass:    59.01330 amu.
 Principal axes and moments of inertia in atomic units:
                           1         2         3
     Eigenvalues --   153.65940 181.77847 324.26998
           X            0.99978  -0.02078   0.00000
           Y            0.02078   0.99978   0.00000
           Z            0.00000   0.00000   1.00000
 This molecule is an asymmetric top.
 Rotational symmetry number  1.
 Rotational temperatures (Kelvin)      0.56367     0.47648     0.26710
 Rotational constants (GHZ):          11.74508     9.92825     5.56555
 Zero-point vibrational energy     128204.3 (Joules/Mol)
                                   30.64156 (Kcal/Mol)
 Warning -- explicit consideration of   2 degrees of freedom as
           vibrations may cause significant error
 Vibrational temperatures:    115.47   677.82   917.68   935.24  1332.05
          (Kelvin)           1492.49  1529.92  1960.36  2045.10  2097.08
                             2103.62  2199.62  4394.88  4501.98  4535.54

 Zero-point correction=                           0.048830 (Hartree/Particle)
 Thermal correction to Energy=                    0.053098
 Thermal correction to Enthalpy=                  0.054043
 Thermal correction to Gibbs Free Energy=         0.021924
 Sum of electronic and zero-point Energies=           -228.587216
 Sum of electronic and thermal Energies=              -228.582949
 Sum of electronic and thermal Enthalpies=            -228.582004
 Sum of electronic and thermal Free Energies=         -228.614123

                     E (Thermal)             CV                S
                      KCal/Mol        Cal/Mol-Kelvin    Cal/Mol-Kelvin
 Total                   33.320             12.695             67.599
 Electronic               0.000              0.000              0.000
 Translational            0.889              2.981             38.146
 Rotational               0.889              2.981             23.720
 Vibrational             31.542              6.733              5.734
 Vibration     1          0.600              1.963              3.885
 Vibration     2          0.828              1.314              0.734

 Optimization completed.
    -- Stationary point found.
 Normal termination of Gaussian 09 at Fri Aug 10 09:00:04 2018.
