 Gaussian 09, Revision D.01,
 Gaussian 09:  ES64L-G09RevD.01 24-Apr-2013

 ------------------------------------------
 #rb3lyp gen opt=(ModRedundant,MaxCycle=10)
 ------------------------------------------

 -------
 H2 Scan
 -------
 Symbolic Z-matrix:
 Charge =  0 Multiplicity = 1

 SCF Done:  E(RB3LYP) =  -1.15022328699     A.U. after    7 cycles
 Optimization completed.
    -- Stationary point found.
 SCF Done:  E(RB3LYP) =  -1.15335316418     A.U. after    6 cycles
 Optimization completed.
 SCF Done:  E(RB3LYP) =  -1.15615490958     A.U. after    6 cycles
 SCF Done:  E(RB3LYP) =  -1.15864959097     A.U. after    6 cycles
 SCF Done:  E(RB3LYP) =  -1.16085680659     A.U. after    6 cycles
 SCF Done:  E(RB3LYP) =  -1.16279479920     A.U. after    6 cycles
 SCF Done:  E(RB3LYP) =  -1.16448056200     A.U. after    6 cycles
 SCF Done:  E(RB3LYP) =  -1.16592993732     A.U. after    6 cycles
 SCF Done:  E(RB3LYP) =  -1.16715770777     A.U. after    6 cycles
 SCF Done:  E(RB3LYP) =  -1.16817767925     A.U. after    6 cycles
 SCF Done:  E(RB3LYP) =  -1.05473266152     A.U. after    4 cycles
 SCF Done:  E(RB3LYP) =  -1.05313390265     A.U. after    4 cycles
 SCF Done:  E(RB3LYP) =  -1.05154493047     A.U. after    4 cycles
 SCF Done:  E(RB3LYP) =  -1.04996584029     A.U. after    4 cycles
 SCF Done:  E(RB3LYP) =  -1.04839672177     A.U. after    4 cycles
 SCF Done:  E(RB3LYP) =  -1.04683765927     A.U. after    4 cycles
 SCF Done:  E(RB3LYP) =  -1.04528873203     A.U. after    4 cycles
 SCF Done:  E(RB3LYP) =  -1.04375001435     A.U. after    4 cycles
 SCF Done:  E(RB3LYP) =  -1.04222157572     A.U. after    4 cycles
    -- Stationary point found.
 SCF Done:  E(RB3LYP) =  -1.04070348084     A.U. after    4 cycles
 Optimization completed.
    -- Stationary point found.

                         Standard orientation:
 ---------------------------------------------------------------------
 Center     Atomic      Atomic             Coordinates (Angstroms)
 Number     Number       Type             X           Y           Z
 ---------------------------------------------------------------------
      1          1           0        0.000000    0.000000    0.800000
      2          1           0        0.000000    0.000000   -0.800000
 ---------------------------------------------------------------------

 The electronic state is 1-SGG.
 Alpha  occ. eigenvalues --   -0.31373
 Alpha virt. eigenvalues --   -0.09209   0.91699   0.95224

 Mulliken charges:
               1
     1  H    0.000000
     2  H    0.000000
 Sum of Mulliken charges =   0.00000

 Dipole moment (field-independent basis, Debye):
    X=              0.0000    Y=              0.0000    Z=              0.0000  Tot=              0.0000
 Quadrupole moment (field-independent basis, Debye-Ang):
   XX=             -2.5669   YY=             -2.5669   ZZ=             -1.2736
   XY=              0.0000   XZ=              0.0000   YZ=              0.0000

 Normal termination of Gaussian 09 at Mon Nov  9 20:33:36 2015.
