 Gaussian 09, Revision D.01,
 Gaussian 09:  ES64L-G09RevD.01 24-Apr-2013

 -------------------------------------------------
 #rb3lyp gen opt=(ModRedundant,MaxCycle=10) nosymm
 -------------------------------------------------

 -------
 H2 Scan
 -------
 Symbolic Z-matrix:
 Charge =  0 Multiplicity = 1

 SCF Done:  E(RB3LYP) =  -187.493316782     A.U. after   11 cycles
 SCF Done:  E(RB3LYP) =  -187.493209673     A.U. after   11 cycles
 SCF Done:  E(RB3LYP) =  -187.493965985     A.U. after   11 cycles
 SCF Done:  E(RB3LYP) =  -187.486700457     A.U. after   12 cycles
 SCF Done:  E(RB3LYP) =  -187.495172073     A.U. after   10 cycles
 SCF Done:  E(RB3LYP) =  -187.496938133     A.U. after   13 cycles
 SCF Done:  E(RB3LYP) =  -187.497574149     A.U. after   11 cycles
 SCF Done:  E(RB3LYP) =  -187.497647737     A.U. after    9 cycles
 SCF Done:  E(RB3LYP) =  -187.497779072     A.U. after    8 cycles
 SCF Done:  E(RB3LYP) =  -187.496663237     A.U. after   13 cycles
 Optimization stopped.
                           ! Non-Optimized Parameters !
 Optimization stopped.
 SCF Done:  E(RB3LYP) =  -187.499508291     A.U. after    1 cycles
 SCF Done:  E(RB3LYP) =  -187.499503703     A.U. after    8 cycles
 SCF Done:  E(RB3LYP) =  -187.499890573     A.U. after   10 cycles
 SCF Done:  E(RB3LYP) =  -187.500274777     A.U. after   10 cycles
 SCF Done:  E(RB3LYP) =  -187.500653029     A.U. after   10 cycles
 SCF Done:  E(RB3LYP) =  -187.501025401     A.U. after   10 cycles
 SCF Done:  E(RB3LYP) =  -187.501391927     A.U. after   10 cycles
 SCF Done:  E(RB3LYP) =  -187.501752645     A.U. after   10 cycles
 SCF Done:  E(RB3LYP) =  -187.502107595     A.U. after   10 cycles
    -- Stationary point found.
 SCF Done:  E(RB3LYP) =  -187.502456814     A.U. after   10 cycles
 Optimization completed.
    -- Stationary point found.

                          Input orientation:
 ---------------------------------------------------------------------
 Center     Atomic      Atomic             Coordinates (Angstroms)
 Number     Number       Type             X           Y           Z
 ---------------------------------------------------------------------
      1          8           0        0.000000    0.057948   -1.111542
      2          6           0        0.000000   -0.114341   -0.014995
      3          8           0        0.000000    0.066393    1.126537
 ---------------------------------------------------------------------

 Alpha  occ. eigenvalues --  -19.12274 -19.11073 -10.30890  -1.20518  -1.14854
 Alpha  occ. eigenvalues --   -0.53344  -0.53294  -0.52997  -0.49623  -0.35318
 Alpha  occ. eigenvalues --   -0.35199
 Alpha virt. eigenvalues --    0.00502   0.05873   0.19502   0.48182   0.62435
 Alpha virt. eigenvalues --    0.62733   0.93876   1.07782   1.38870   1.39935
 Alpha virt. eigenvalues --    1.48101   1.50738   1.59049   1.59685   3.03812

 Mulliken charges:
               1
     1  O   -0.385438
     2  C    0.800217
     3  O   -0.414779
 Sum of Mulliken charges =   0.00000

 Dipole moment (field-independent basis, Debye):
    X=              0.0000    Y=             -0.4085    Z=             -0.2140  Tot=              0.4612
 Quadrupole moment (field-independent basis, Debye-Ang):
   XX=            -14.1613   YY=            -14.1280   ZZ=            -19.5488
   XY=              0.0000   XZ=              0.0000   YZ=              0.0137

 Normal termination of Gaussian 09 at Mon Nov  9 21:05:31 2015.
