 Gaussian 09, Revision D.01,

 ------------------------------------
 #p rhf/3-21g test geom=modela pop=mk
 ------------------------------------

 ----------------------------------------------------------------------
 Gaussian Test Job 200 (Part 1): Methanol charges via electrostatic pot
 ential fit
 ----------------------------------------------------------------------
 Charge =  0 Multiplicity = 1

 SCF Done:  E(RHF) =  -114.396748992     A.U. after   10 cycles
 Normal termination of Gaussian 09 at Wed Apr 24 20:08:30 2013.

 ---------------------------------------------
 #p rhf/3-21g pop=(mk,dipole) test geom=modela
 ---------------------------------------------

 ----------------------------------------------------------------------
 Gaussian Test Job 200 (Part 2): Methanol charges via electrostatic pot
 ential fit with dipole constraint
 ----------------------------------------------------------------------
 Charge =  0 Multiplicity = 1

 SCF Done:  E(RHF) =  -114.396748992     A.U. after   10 cycles
 Normal termination of Gaussian 09 at Wed Apr 24 20:08:31 2013.

 -------------------------------------------------
 #p rhf/3-21g pop=(mk,atomdipole) test geom=modela
 -------------------------------------------------

 ----------------------------------------------------------------------
 Gaussian Test Job 200 (Part 3): Methanol charges via electrostatic pot
 ential fit with dipole constraint
 ----------------------------------------------------------------------
 Charge =  0 Multiplicity = 1

 SCF Done:  E(RHF) =  -114.396748992     A.U. after   10 cycles
 Normal termination of Gaussian 09 at Wed Apr 24 20:08:32 2013.

 ---------------------------------------
 #p rhf/3-21g test geom=modela pop=chelp
 ---------------------------------------

 ----------------------------------------------------------------------
 Gaussian Test Job 200 (Part 4): Methanol charges via electrostatic pot
 ential fit with Chirlian-Francl grid
 ----------------------------------------------------------------------
 Charge =  0 Multiplicity = 1

 SCF Done:  E(RHF) =  -114.396748992     A.U. after   10 cycles
 Normal termination of Gaussian 09 at Wed Apr 24 20:08:33 2013.

 ----------------------------------------
 #p rhf/3-21g test geom=modela pop=chelpg
 ----------------------------------------

 ----------------------------------------------------------------------
 Gaussian Test Job 200 (Part 5): Methanol charges via electrostatic pot
 ential fit with Brenneman grid
 ----------------------------------------------------------------------
 Charge =  0 Multiplicity = 1

 SCF Done:  E(RHF) =  -114.396748992     A.U. after   10 cycles
 Normal termination of Gaussian 09 at Wed Apr 24 20:08:35 2013.

 --------------------------------------------------
 #p rhf/3-21g test geom=modela pop=(chelpg,readrad)
 --------------------------------------------------

 ----------------------------------------------------------------------
 Gaussian Test Job 200 (Part 6): Methanol charges via electrostatic pot
 ential fit with Brenneman grid
 ----------------------------------------------------------------------
 Charge =  0 Multiplicity = 1

 SCF Done:  E(RHF) =  -114.396748992     A.U. after   10 cycles
 Normal termination of Gaussian 09 at Wed Apr 24 20:08:36 2013.
 Gaussian 09:  ES64L-G09RevD.01 24-Apr-2013

                         Standard orientation:
 ---------------------------------------------------------------------
 Center     Atomic      Atomic             Coordinates (Angstroms)
 Number     Number       Type             X           Y           Z
 ---------------------------------------------------------------------
      1          8           0       -0.050283   -0.757778    0.000000
      2          1           0        0.854814   -1.077778    0.000000
      3          6           0       -0.050283    0.672222    0.000000
      4          1           0       -1.077945    1.035556    0.000000
      5          1           0        0.463548    1.035556    0.889981
      6          1           0        0.463548    1.035556   -0.889981
 ---------------------------------------------------------------------

 SCF Done:  E(RHF) =  -114.396748992     A.U. after   10 cycles

 The electronic state is 1-A'.
 Alpha  occ. eigenvalues --  -20.43245 -11.21389  -1.33982  -0.92345  -0.66884
 Alpha  occ. eigenvalues --   -0.61671  -0.58285  -0.47795  -0.43163
 Alpha virt. eigenvalues --    0.26338   0.31625   0.34844   0.35134   0.42610
 Alpha virt. eigenvalues --    0.95292   0.96460   0.96971   1.24569   1.29781
 Alpha virt. eigenvalues --    1.31567   1.36267   1.87928   1.88085   1.98004

 Mulliken charges:
               1
     1  O   -0.683087
     2  H    0.374476
     3  C   -0.258951
     4  H    0.215476
     5  H    0.176043
     6  H    0.176043
 Sum of Mulliken charges =   0.00000

 Dipole moment (field-independent basis, Debye):
    X=              1.6873    Y=              1.3163    Z=              0.0000  Tot=              2.1400
 Quadrupole moment (field-independent basis, Debye-Ang):
   XX=            -11.5600   YY=            -13.0635   ZZ=            -13.4915
   XY=             -2.4496   XZ=              0.0000   YZ=              0.0000

 ESP charges:
               1
     1  O   -0.745957
     2  H    0.449455
     3  C    0.321881
     4  H    0.027279
     5  H   -0.026329
     6  H   -0.026329
 Sum of ESP charges =   0.00000

 Normal termination of Gaussian 09 at Wed Apr 24 20:08:39 2013.
