 Gaussian 09, Revision D.01,
 Gaussian 09:  ES64L-G09RevD.01 24-Apr-2013

 ---------------------------------------
 #p rhf/sto-3g test pop=(chelpg,readrad)
 ---------------------------------------

 ---------------------------------------------------------------
 Gaussian Test Job 237: Test CHELPG potential with read-in radii
 ---------------------------------------------------------------
 Symbolic Z-matrix:
 Charge =  0 Multiplicity = 1

                         Standard orientation:
 ---------------------------------------------------------------------
 Center     Atomic      Atomic             Coordinates (Angstroms)
 Number     Number       Type             X           Y           Z
 ---------------------------------------------------------------------
      1          8           0        0.000000    0.000000    0.117056
      2          1           0        0.000000    0.755899   -0.468224
      3          1           0        0.000000   -0.755899   -0.468224
 ---------------------------------------------------------------------

 SCF Done:  E(RHF) =  -74.9627570408     A.U. after    7 cycles

 The electronic state is 1-A1.
 Alpha  occ. eigenvalues --  -20.24163  -1.26905  -0.61854  -0.45319  -0.39134
 Alpha virt. eigenvalues --    0.60691   0.74377

 Mulliken charges:
               1
     1  O   -0.367458
     2  H    0.183729
     3  H    0.183729
 Sum of Mulliken charges =   0.00000

 Dipole moment (field-independent basis, Debye):
    X=              0.0000    Y=              0.0000    Z=             -1.7275  Tot=              1.7275
 Quadrupole moment (field-independent basis, Debye-Ang):
   XX=             -6.0933   YY=             -4.3587   ZZ=             -5.3933
   XY=              0.0000   XZ=              0.0000   YZ=              0.0000

 ESP charges:
               1
     1  O   -0.618523
     2  H    0.309261
     3  H    0.309261
 Sum of ESP charges =   0.00000

 Normal termination of Gaussian 09 at Wed Apr 24 20:31:19 2013.
