                         Program Version 6.0.0  -   RELEASE  -
|  1> !HF
|  2>  %maxcore 4000
|  3>  %pal nprocs 36 end
|  4>  %maxcore 4000
|  5>  %pal nprocs 36 end
|  6>
|  7>
|  8> # Geometry from r2scan-3c tight opt
|  9>
| 10> *xyz 0 2
| 11>    H          -1.01753024797734      1.28244048569555      3.83126470832566
| 12>    F          -0.74725430833994      2.17270427275665      2.01366249446148
| 13>    F          -1.86497859454729      3.13127106394363      3.65205621187758
| 14>    C          -1.47233184913543      1.97315817760416      3.11657458533527
| 15>  *
| 16>
| 17>
| 18>                          ****END OF INPUT****
|  1>       ! HF pc-1 TightOPT OPT
|  2>       %base "F00_B00_opt"
|  3>
|  4>                          ****END OF INPUT****
 Total Charge           Charge          ....    0
 Multiplicity           Mult            ....    2
 Number of Electrons    NEL             ....   25
FINAL SINGLE POINT ENERGY      -237.198245745248
FINAL SINGLE POINT ENERGY      -237.199388349870
FINAL SINGLE POINT ENERGY      -237.199465369580
FINAL SINGLE POINT ENERGY      -237.199466469724
                    ***********************HURRAY********************
FINAL SINGLE POINT ENERGY      -237.199466497155
|  1>       ! HF pc-1 TightSCF
|  2>       %base "F00_B00_epr"
|  3>
|  4>       %eprnmr
|  5>           ORI       = GIAO
|  6>           GTENSOR  TRUE
|  7>           NUCLEI  = ALL H {AISO, ADIP, AORB}
|  8>           NUCLEI  = ALL F {AISO, ADIP, AORB}
|  9>           NUCLEI  = ALL C {AISO, ADIP, AORB}
| 10>       end
| 11>
| 12>
| 13>                          ****END OF INPUT****

CARTESIAN COORDINATES (ANGSTROEM)
---------------------------------
  H     -1.019536    1.298598    3.820320
  F     -0.755166    2.173321    2.035180
  F     -1.852349    3.114309    3.643349
  C     -1.475044    1.973346    3.114709

 Multiplicity           Mult            ....    2
 Number of Electrons    NEL             ....   25
 Basis Dimension        Dim             ....   47

ORBITAL ENERGIES
----------------
                 SPIN UP ORBITALS
  NO   OCC          E(Eh)            E(eV)
   0   1.0000     -26.316401      -716.1057
   1   1.0000     -26.316393      -716.1054
   2   1.0000     -11.411840      -310.5319
   3   1.0000      -1.714070       -46.6422
   4   1.0000      -1.647637       -44.8345
   5   1.0000      -0.983165       -26.7533
   6   1.0000      -0.816096       -22.2071
   7   1.0000      -0.798674       -21.7330
   8   1.0000      -0.789402       -21.4807
   9   1.0000      -0.706707       -19.2305
  10   1.0000      -0.659831       -17.9549
  11   1.0000      -0.631710       -17.1897
  12   1.0000      -0.428269       -11.6538
  13   0.0000       0.174995         4.7619
  14   0.0000       0.296168         8.0591
  15   0.0000       0.333323         9.0702
  16   0.0000       0.526893        14.3375
  17   0.0000       0.659073        17.9343

                 SPIN DOWN ORBITALS
  NO   OCC          E(Eh)            E(eV)
   0   1.0000     -26.311108      -715.9616
   1   1.0000     -26.311093      -715.9612
   2   1.0000     -11.381533      -309.7072
   3   1.0000      -1.697137       -46.1814
   4   1.0000      -1.634465       -44.4760
   5   1.0000      -0.934307       -25.4238
   6   1.0000      -0.798725       -21.7344
   7   1.0000      -0.787684       -21.4340
   8   1.0000      -0.721574       -19.6350
   9   1.0000      -0.665765       -18.1164
  10   1.0000      -0.653836       -17.7918
  11   1.0000      -0.614202       -16.7133
  12   0.0000       0.125381         3.4118
  13   0.0000       0.184444         5.0190
  14   0.0000       0.316760         8.6195
  15   0.0000       0.360559         9.8113
  16   0.0000       0.648829        17.6555

MULLIKEN ATOMIC CHARGES AND SPIN POPULATIONS
--------------------------------------------
   0 H :    0.103689   -0.011492
   1 F :   -0.353654    0.023404
   2 F :   -0.353663    0.023403
   3 C :    0.603628    0.964686
Sum of atomic charges         :    0.0000000

LOEWDIN ATOMIC CHARGES AND SPIN POPULATIONS
-------------------------------------------
   0 H :    0.016898    0.011542
   1 F :   -0.129529    0.058345
   2 F :   -0.129539    0.058344
   3 C :    0.242170    0.871769

  Mayer bond orders larger than 0.100000
B(  0-H ,  3-C ) :   0.9715 B(  1-F ,  3-C ) :   0.9165 B(  2-F ,  3-C ) :   0.9165

FINAL SINGLE POINT ENERGY      -237.199466497591

DIPOLE MOMENT
-------------

Method             : SCF
Type of density    : Electron Density
Multiplicity       :   2
Irrep              :   0
Energy             :  -237.1994664975910894 Eh
Relativity type    :
Basis              : AO
                                X                 Y                 Z
Electronic contribution:     -0.179142186       0.843570168      -0.615853849
Nuclear contribution   :      0.234892392      -1.430789829       0.997469286
                        -----------------------------------------
Total Dipole Moment    :      0.055750206      -0.587219661       0.381615437
                        -----------------------------------------
Magnitude (a.u.)       :      0.702542068
Magnitude (Debye)      :      1.785720024

Rotational constants in cm-1:             2.284286             0.376059             0.328114
Rotational constants in MHz :         68481.156864         11273.953222          9836.615646

                             ****ORCA TERMINATED NORMALLY****
TOTAL RUN TIME: 0 days 0 hours 9 minutes 49 seconds 114 msec
