 Gaussian 16, Revision A.03,
 Gaussian 16:  ES64L-G16RevA.03 25-Dec-2016

 -------------------
 #p b3lyp/sto-3g opt
 -------------------

 ---
 dvb
 ---
 Symbolic Z-matrix:
 Charge =  0 Multiplicity = 1

 SCF Done:  E(RB3LYP) =  -382.300235646     A.U. after   11 cycles
 SCF Done:  E(RB3LYP) =  -382.307652305     A.U. after   11 cycles
 SCF Done:  E(RB3LYP) =  -382.308228237     A.U. after   11 cycles
 SCF Done:  E(RB3LYP) =  -382.308266129     A.U. after    8 cycles
 SCF Done:  E(RB3LYP) =  -382.308266890     A.U. after    7 cycles
 Optimization completed.
    -- Stationary point found.

                         Standard orientation:
 ---------------------------------------------------------------------
 Center     Atomic      Atomic             Coordinates (Angstroms)
 Number     Number       Type             X           Y           Z
 ---------------------------------------------------------------------
      1          6           0        1.231088    0.738635    0.000000
      2          6           0       -0.027393    1.401714    0.000000
      3          6           0       -1.231088    0.682570    0.000000
      4          6           0       -1.231088   -0.738635    0.000000
      5          6           0        0.027393   -1.401714    0.000000
      6          6           0        1.231088   -0.682570    0.000000
      7          1           0       -0.051174    2.500103    0.000000
      8          1           0       -2.183875    1.227428    0.000000
      9          1           0        0.051174   -2.500103    0.000000
     10          1           0        2.183875   -1.227428    0.000000
     11          6           0       -2.486387   -1.555266    0.000000
     12          6           0       -3.746773   -1.087723    0.000000
     13          1           0       -2.321689   -2.643315    0.000000
     14          1           0       -4.605564   -1.769017    0.000000
     15          1           0       -3.980260   -0.016884    0.000000
     16          6           0        2.486387    1.555266    0.000000
     17          6           0        3.746773    1.087723    0.000000
     18          1           0        2.321689    2.643315    0.000000
     19          1           0        4.605564    1.769017    0.000000
     20          1           0        3.980260    0.016884    0.000000
 ---------------------------------------------------------------------

 The electronic state is 1-AG.
 Alpha  occ. eigenvalues --  -10.02022 -10.02017 -10.00812 -10.00811 -10.00679
 Alpha  occ. eigenvalues --  -10.00678 -10.00605 -10.00591  -9.99233  -9.99233
 Alpha  occ. eigenvalues --   -0.80950  -0.75398  -0.71796  -0.69978  -0.66750
 Alpha  occ. eigenvalues --   -0.58870  -0.55892  -0.53166  -0.51018  -0.45744
 Alpha  occ. eigenvalues --   -0.43936  -0.41061  -0.39795  -0.39607  -0.37397
 Alpha  occ. eigenvalues --   -0.35114  -0.34728  -0.32450  -0.31126  -0.29280
 Alpha  occ. eigenvalues --   -0.28745  -0.26354  -0.21244  -0.19505  -0.15307
 Alpha virt. eigenvalues --    0.03740   0.09037   0.11060   0.18220   0.27252
 Alpha virt. eigenvalues --    0.33225   0.34075   0.37940   0.38146   0.41097
 Alpha virt. eigenvalues --    0.41197   0.42675   0.43961   0.45273   0.47825

 Mulliken charges:
               1
     1  C   -0.004504
     2  C   -0.076607
     3  C   -0.077169
     4  C   -0.004504
     5  C   -0.076607
     6  C   -0.077169
     7  H    0.077690
     8  H    0.079227
     9  H    0.077690
    10  H    0.079227
    11  C   -0.076377
    12  C   -0.154814
    13  H    0.076881
    14  H    0.079345
    15  H    0.076328
    16  C   -0.076377
    17  C   -0.154814
    18  H    0.076881
    19  H    0.079345
    20  H    0.076328
 Sum of Mulliken charges =  -0.00000

 Dipole moment (field-independent basis, Debye):
    X=             -0.0000    Y=              0.0000    Z=              0.0000  Tot=              0.0000
 Quadrupole moment (field-independent basis, Debye-Ang):
   XX=            -50.6959   YY=            -50.2418   ZZ=            -58.6254
   XY=             -0.1149   XZ=              0.0000   YZ=              0.0000

 Normal termination of Gaussian 16 at Sun Jun 29 23:44:29 2025.
