 Q-Chem 6.1, Q-Chem, Inc., Pleasanton, CA (2022)
 Q-Chem 6.1.0 for Intel X86 EM64T Linux

User input:
--------------------------------------------------------------
$MOLECULE
1 1
H          3.23008       -2.20472        0.10253
C          3.12316       -1.12656        0.05584
C          1.86227       -0.50559       -0.01003
C          1.79673        0.90358       -0.05567
H          0.83298        1.38956       -0.10310
C          2.94188        1.65639       -0.04275
H          2.90580        2.73608       -0.08138
C          4.19244        1.02301        0.02122
C          4.27423       -0.37759        0.07313
H          5.24025       -0.86348        0.12628
O          5.26755        1.81073        0.03045
C          0.65056       -1.26470       -0.03233
O          0.60338       -2.57416       -0.04081
O         -0.47243       -0.65817       -0.04655
C         -4.92060        1.45550        0.07649
H         -5.72011        2.18349        0.11707
C         -4.41115        1.05460       -1.15391
H         -3.00250       -0.20512       -2.16744
C         -3.39197        0.11488       -1.20820
C         -2.87700       -0.42698       -0.03035
H         -4.81384        1.46839       -2.06878
C         -3.39448       -0.02348        1.20025
H         -3.00612       -0.45221        2.11647
C         -4.41398        0.91573        1.25379
H         -4.81840        1.22075        2.20959
C         -1.78032       -1.42226       -0.08175
H          6.09216        1.30769        0.07653
H         -1.76064       -2.08581        0.77905
H         -1.75974       -1.99835       -1.00383
H          1.48154       -2.98262       -0.04210
$END

$REM
cis_n_roots 50
method b3lyp
dft_d d4
basis def2-tzvpd
gui 2
scf_convergence 7
$END
--------------------------------------------------------------

             Standard Nuclear Orientation (Angstroms)
    I     Atom           X                Y                Z
 ----------------------------------------------------------------
    1      H       3.2300802242    -2.2047189138     0.1025308794
    2      C       3.1231597902    -1.1265589552     0.0558409157
    3      C       1.8622695516    -0.5055894744    -0.0100294103
    4      C       1.7967289799     0.9035805012    -0.0556693414
    5      H       0.8329787920     1.3895601042    -0.1030995899
    6      C       2.9418786638     1.6563909757    -0.0427489633
    7      H       2.9057982268     2.7360809631    -0.0813789065
    8      C       4.1924389081     1.0230114907     0.0212213589
    9      C       4.2742294744    -0.3775884786     0.0731312953
   10      H       5.2402496607    -0.8634780810     0.1262815444
   11      O       5.2675485785     1.8107319363     0.0304517189
   12      C       0.6505598731    -1.2646999759    -0.0323298080
   13      O       0.6033804190    -2.5741599950    -0.0408099032
   14      O      -0.4724303745    -0.6581704411    -0.0465500950
   15      C      -4.9206012873     1.4554977051     0.0764887503
   16      H      -5.7201116012     2.1834873708     0.1170685644
   17      C      -4.4111507651     1.0545979932    -1.1539111274
   18      H      -3.0024999492    -0.2051213590    -2.1674407985
   19      C      -3.3919703594     0.1148784196    -1.2082008912
   20      C      -2.8770004752    -0.4269814401    -0.0303507760
   21      H      -4.8138406723     1.4683878831    -2.0687812181
   22      C      -3.3944809985    -0.0234817315     1.2002490995
   23      H      -3.0061210856    -0.4522116274     2.1164691851
   24      C      -4.4139814038     0.9157278420     1.2537888631
   25      H      -4.8184018068     1.2207476146     2.2095887652
   26      C      -1.7803200472    -1.4222609817    -0.0817505208
   27      H       6.0921587740     1.3076922757     0.0765319260
   28      H      -1.7606400208    -2.0858110272     0.7790494435
   29      H      -1.7597395415    -1.9983509157    -1.0038305508
   30      H       1.4815405889    -2.9826196304    -0.0420996747
 ----------------------------------------------------------------

   13    -767.1091612568      2.56e-08  Convergence criterion met
 Total energy in the final basis set =     -767.1091612568

         TDDFT/TDA Excitation Energies
 ---------------------------------------------------

 Excited state   1: excitation energy (eV) =    2.9365
 Total energy for state  1:                  -767.00124751 au
    Multiplicity: Triplet
    Trans. Mom.:  0.0000 X   0.0000 Y   0.0000 Z
    Strength   :     0.0000000000
    D(   58) --> V(    1) amplitude =  0.9707

 Excited state   2: excitation energy (eV) =    3.1244
 Total energy for state  2:                  -766.99434002 au
    Multiplicity: Triplet
    Trans. Mom.:  0.0000 X   0.0000 Y   0.0000 Z
    Strength   :     0.0000000000
    D(   60) --> V(    1) amplitude =  0.9776

 Excited state   3: excitation energy (eV) =    3.1336
 Total energy for state  3:                  -766.99400529 au
    Multiplicity: Singlet
    Trans. Mom.: -0.3587 X   0.0399 Y   0.0042 Z
    Strength   :     0.0100031694
    D(   60) --> V(    1) amplitude =  0.9993

 Excited state   4: excitation energy (eV) =    3.1622
 Total energy for state  4:                  -766.99295381 au
    Multiplicity: Triplet
    Trans. Mom.:  0.0000 X   0.0000 Y   0.0000 Z
    Strength   :     0.0000000000
    D(   59) --> V(    1) amplitude =  0.9979

 Excited state   5: excitation energy (eV) =    3.1812
 Total energy for state  5:                  -766.99225506 au
    Multiplicity: Singlet
    Trans. Mom.: -0.0186 X   0.0063 Y  -0.0308 Z
    Strength   :     0.0001040373
    D(   59) --> V(    1) amplitude =  0.9984

 Excited state   6: excitation energy (eV) =    3.7177
 Total energy for state  6:                  -766.97253904 au
    Multiplicity: Triplet
    Trans. Mom.:  0.0000 X   0.0000 Y   0.0000 Z
    Strength   :     0.0000000000
    D(   57) --> V(    1) amplitude =  0.9866

 Excited state   7: excitation energy (eV) =    4.0666
 Total energy for state  7:                  -766.95971534 au
    Multiplicity: Triplet
    Trans. Mom.:  0.0000 X   0.0000 Y   0.0000 Z
    Strength   :     0.0000000000
    D(   59) --> V(    3) amplitude =  0.4920
    D(   59) --> V(    4) amplitude =  0.6813
    D(   60) --> V(    5) amplitude = -0.4336
    D(   60) --> V(    6) amplitude = -0.2429

 Excited state   8: excitation energy (eV) =    4.4320
 Total energy for state  8:                  -766.94628843 au
    Multiplicity: Triplet
    Trans. Mom.:  0.0000 X   0.0000 Y   0.0000 Z
    Strength   :     0.0000000000
    D(   60) --> V(    3) amplitude =  0.5938
    D(   60) --> V(    4) amplitude =  0.7657

 Excited state   9: excitation energy (eV) =    4.5116
 Total energy for state  9:                  -766.94336294 au
    Multiplicity: Singlet
    Trans. Mom.:  0.9045 X  -0.0096 Y   0.0221 Z
    Strength   :     0.0904878133
    D(   57) --> V(    1) amplitude =  0.8758
    D(   58) --> V(    1) amplitude = -0.3376
    D(   58) --> V(    2) amplitude =  0.2923

 Excited state  10: excitation energy (eV) =    4.5446
 Total energy for state 10:                  -766.94215060 au
    Multiplicity: Triplet
    Trans. Mom.:  0.0000 X   0.0000 Y   0.0000 Z
    Strength   :     0.0000000000
    D(   57) --> V(    2) amplitude = -0.6600
    D(   58) --> V(    2) amplitude =  0.7085

 Excited state  11: excitation energy (eV) =    4.5792
 Total energy for state 11:                  -766.94087875 au
    Multiplicity: Singlet
    Trans. Mom.: -2.2775 X  -0.9694 Y  -0.0202 Z
    Strength   :     0.6873858926
    D(   57) --> V(    1) amplitude =  0.3286
    D(   57) --> V(    2) amplitude = -0.2225
    D(   58) --> V(    1) amplitude =  0.8789

 Excited state  12: excitation energy (eV) =    4.5953
 Total energy for state 12:                  -766.94028583 au
    Multiplicity: Triplet
    Trans. Mom.:  0.0000 X   0.0000 Y   0.0000 Z
    Strength   :     0.0000000000
    D(   57) --> V(    2) amplitude =  0.6895
    D(   58) --> V(    2) amplitude =  0.6766

 Excited state  13: excitation energy (eV) =    4.6644
 Total energy for state 13:                  -766.93774592 au
    Multiplicity: Triplet
    Trans. Mom.:  0.0000 X   0.0000 Y   0.0000 Z
    Strength   :     0.0000000000
    D(   59) --> V(    3) amplitude =  0.3110
    D(   59) --> V(    4) amplitude =  0.4025
    D(   60) --> V(    5) amplitude =  0.7504
    D(   60) --> V(    6) amplitude =  0.4034

 Excited state  14: excitation energy (eV) =    4.9257
 Total energy for state 14:                  -766.92814555 au
    Multiplicity: Singlet
    Trans. Mom.: -0.0030 X   0.0513 Y  -0.0062 Z
    Strength   :     0.0003229567
    D(   60) --> V(    2) amplitude =  0.9981

 Excited state  15: excitation energy (eV) =    4.9289
 Total energy for state 15:                  -766.92802605 au
    Multiplicity: Triplet
    Trans. Mom.:  0.0000 X   0.0000 Y   0.0000 Z
    Strength   :     0.0000000000
    D(   60) --> V(    2) amplitude =  0.9893

 Excited state  16: excitation energy (eV) =    5.0085
 Total energy for state 16:                  -766.92510146 au
    Multiplicity: Triplet
    Trans. Mom.:  0.0000 X   0.0000 Y   0.0000 Z
    Strength   :     0.0000000000
    D(   59) --> V(    2) amplitude =  0.9952

 Excited state  17: excitation energy (eV) =    5.0100
 Total energy for state 17:                  -766.92504639 au
    Multiplicity: Singlet
    Trans. Mom.:  0.0139 X  -0.0065 Y   0.0056 Z
    Strength   :     0.0000328029
    D(   59) --> V(    2) amplitude =  0.9993

 Excited state  18: excitation energy (eV) =    5.1212
 Total energy for state 18:                  -766.92096153 au
    Multiplicity: Triplet
    Trans. Mom.:  0.0000 X   0.0000 Y   0.0000 Z
    Strength   :     0.0000000000
    D(   59) --> V(    5) amplitude =  0.8612
    D(   59) --> V(    6) amplitude =  0.4422

 Excited state  19: excitation energy (eV) =    5.2214
 Total energy for state 19:                  -766.91727992 au
    Multiplicity: Singlet
    Trans. Mom.:  0.0024 X   0.0113 Y  -0.2776 Z
    Strength   :     0.0098727325
    D(   59) --> V(    5) amplitude =  0.5059
    D(   59) --> V(    6) amplitude =  0.2571
    D(   60) --> V(    3) amplitude =  0.6067
    D(   60) --> V(    4) amplitude =  0.5492

 Excited state  20: excitation energy (eV) =    5.4413
 Total energy for state 20:                  -766.90919707 au
    Multiplicity: Triplet
    Trans. Mom.:  0.0000 X   0.0000 Y   0.0000 Z
    Strength   :     0.0000000000
    D(   53) --> V(    1) amplitude = -0.3720
    D(   56) --> V(    1) amplitude =  0.8932

 Excited state  21: excitation energy (eV) =    5.5028
 Total energy for state 21:                  -766.90693722 au
    Multiplicity: Singlet
    Trans. Mom.: -0.0661 X  -0.0103 Y   0.0002 Z
    Strength   :     0.0006026269
    D(   56) --> V(    1) amplitude =  0.9961

 Excited state  22: excitation energy (eV) =    5.5519
 Total energy for state 22:                  -766.90513218 au
    Multiplicity: Triplet
    Trans. Mom.:  0.0000 X   0.0000 Y   0.0000 Z
    Strength   :     0.0000000000
    D(   60) --> V(    3) amplitude =  0.7839
    D(   60) --> V(    4) amplitude = -0.6119

 Excited state  23: excitation energy (eV) =    5.5600
 Total energy for state 23:                  -766.90483450 au
    Multiplicity: Singlet
    Trans. Mom.:  0.0022 X   0.0024 Y   0.0443 Z
    Strength   :     0.0002690511
    D(   60) --> V(    3) amplitude =  0.7338
    D(   60) --> V(    4) amplitude = -0.6565

 Excited state  24: excitation energy (eV) =    5.6078
 Total energy for state 24:                  -766.90307711 au
    Multiplicity: Singlet
    Trans. Mom.:  0.4117 X  -0.1776 Y  -0.0143 Z
    Strength   :     0.0276466057
    D(   59) --> V(    3) amplitude =  0.9224
    D(   59) --> V(    4) amplitude = -0.3514

 Excited state  25: excitation energy (eV) =    5.6213
 Total energy for state 25:                  -766.90258314 au
    Multiplicity: Triplet
    Trans. Mom.:  0.0000 X   0.0000 Y   0.0000 Z
    Strength   :     0.0000000000
    D(   59) --> V(    3) amplitude =  0.8047
    D(   59) --> V(    4) amplitude = -0.5828

 Excited state  26: excitation energy (eV) =    5.6256
 Total energy for state 26:                  -766.90242602 au
    Multiplicity: Triplet
    Trans. Mom.:  0.0000 X   0.0000 Y   0.0000 Z
    Strength   :     0.0000000000
    D(   53) --> V(    1) amplitude = -0.2204
    D(   55) --> V(    1) amplitude =  0.9226

 Excited state  27: excitation energy (eV) =    5.6506
 Total energy for state 27:                  -766.90150631 au
    Multiplicity: Triplet
    Trans. Mom.:  0.0000 X   0.0000 Y   0.0000 Z
    Strength   :     0.0000000000
    D(   53) --> V(    1) amplitude =  0.6122
    D(   55) --> V(    1) amplitude =  0.3281
    D(   56) --> V(    1) amplitude =  0.3769
    D(   58) --> V(    5) amplitude =  0.3232
    D(   58) --> V(    6) amplitude = -0.4773

 Excited state  28: excitation energy (eV) =    5.6506
 Total energy for state 28:                  -766.90150467 au
    Multiplicity: Singlet
    Trans. Mom.: -0.0139 X  -0.0266 Y  -0.0026 Z
    Strength   :     0.0001257700
    D(   55) --> V(    1) amplitude =  0.9916

 Excited state  29: excitation energy (eV) =    5.6880
 Total energy for state 29:                  -766.90013222 au
    Multiplicity: Singlet
    Trans. Mom.: -0.1611 X   0.7509 Y  -0.0334 Z
    Strength   :     0.0823438335
    D(   57) --> V(    1) amplitude = -0.2825
    D(   57) --> V(    6) amplitude = -0.2575
    D(   58) --> V(    2) amplitude =  0.8796

 Excited state  30: excitation energy (eV) =    5.9116
 Total energy for state 30:                  -766.89191234 au
    Multiplicity: Triplet
    Trans. Mom.:  0.0000 X   0.0000 Y   0.0000 Z
    Strength   :     0.0000000000
    D(   51) --> V(    1) amplitude =  0.4772
    D(   53) --> V(    1) amplitude =  0.4778
    D(   58) --> V(    5) amplitude = -0.3758
    D(   58) --> V(    6) amplitude =  0.5080

 Excited state  31: excitation energy (eV) =    5.9509
 Total energy for state 31:                  -766.89046896 au
    Multiplicity: Triplet
    Trans. Mom.:  0.0000 X   0.0000 Y   0.0000 Z
    Strength   :     0.0000000000
    D(   58) --> V(    3) amplitude =  0.9315
    D(   58) --> V(    4) amplitude = -0.2937

 Excited state  32: excitation energy (eV) =    5.9647
 Total energy for state 32:                  -766.88996317 au
    Multiplicity: Singlet
    Trans. Mom.:  0.7970 X  -0.5386 Y  -0.0102 Z
    Strength   :     0.1352222365
    D(   59) --> V(    3) amplitude =  0.2444
    D(   59) --> V(    4) amplitude =  0.7883
    D(   60) --> V(    5) amplitude = -0.4837

 Excited state  33: excitation energy (eV) =    5.9767
 Total energy for state 33:                  -766.88952023 au
    Multiplicity: Triplet
    Trans. Mom.:  0.0000 X   0.0000 Y   0.0000 Z
    Strength   :     0.0000000000
    D(   52) --> V(    1) amplitude =  0.9573

 Excited state  34: excitation energy (eV) =    5.9878
 Total energy for state 34:                  -766.88911484 au
    Multiplicity: Singlet
    Trans. Mom.:  0.0291 X  -0.0163 Y   0.0533 Z
    Strength   :     0.0005795153
    D(   58) --> V(    3) amplitude =  0.9462
    D(   58) --> V(    4) amplitude = -0.3068

 Excited state  35: excitation energy (eV) =    6.1447
 Total energy for state 35:                  -766.88334631 au
    Multiplicity: Singlet
    Trans. Mom.:  0.0088 X   0.0129 Y  -0.0425 Z
    Strength   :     0.0003084177
    D(   52) --> V(    1) amplitude =  0.9551
    D(   54) --> V(    1) amplitude = -0.2466

 Excited state  36: excitation energy (eV) =    6.1553
 Total energy for state 36:                  -766.88295722 au
    Multiplicity: Triplet
    Trans. Mom.:  0.0000 X   0.0000 Y   0.0000 Z
    Strength   :     0.0000000000
    D(   54) --> V(    1) amplitude =  0.9470

 Excited state  37: excitation energy (eV) =    6.1829
 Total energy for state 37:                  -766.88194365 au
    Multiplicity: Singlet
    Trans. Mom.:  0.0089 X  -0.0016 Y   0.0504 Z
    Strength   :     0.0003967719
    D(   52) --> V(    1) amplitude =  0.2579
    D(   54) --> V(    1) amplitude =  0.9301

 Excited state  38: excitation energy (eV) =    6.2272
 Total energy for state 38:                  -766.88031403 au
    Multiplicity: Triplet
    Trans. Mom.:  0.0000 X   0.0000 Y   0.0000 Z
    Strength   :     0.0000000000
    D(   51) --> V(    1) amplitude =  0.7533
    D(   53) --> V(    1) amplitude = -0.3273
    D(   58) --> V(    6) amplitude = -0.2559
    D(   60) --> V(    6) amplitude = -0.2755

 Excited state  39: excitation energy (eV) =    6.2982
 Total energy for state 39:                  -766.87770725 au
    Multiplicity: Singlet
    Trans. Mom.: -0.4544 X   0.2376 Y   0.0229 Z
    Strength   :     0.0406611131
    D(   60) --> V(    5) amplitude = -0.5077
    D(   60) --> V(    6) amplitude =  0.8344

 Excited state  40: excitation energy (eV) =    6.3058
 Total energy for state 40:                  -766.87742770 au
    Multiplicity: Triplet
    Trans. Mom.:  0.0000 X   0.0000 Y   0.0000 Z
    Strength   :     0.0000000000
    D(   51) --> V(    1) amplitude =  0.2267
    D(   60) --> V(    5) amplitude = -0.4474
    D(   60) --> V(    6) amplitude =  0.8224

 Excited state  41: excitation energy (eV) =    6.3234
 Total energy for state 41:                  -766.87677998 au
    Multiplicity: Triplet
    Trans. Mom.:  0.0000 X   0.0000 Y   0.0000 Z
    Strength   :     0.0000000000
    D(   58) --> V(    3) amplitude =  0.2922
    D(   58) --> V(    4) amplitude =  0.9264

 Excited state  42: excitation energy (eV) =    6.3620
 Total energy for state 42:                  -766.87536231 au
    Multiplicity: Singlet
    Trans. Mom.: -0.0078 X   0.0037 Y  -0.0302 Z
    Strength   :     0.0001535457
    D(   58) --> V(    3) amplitude =  0.3054
    D(   58) --> V(    4) amplitude =  0.9452

 Excited state  43: excitation energy (eV) =    6.3710
 Total energy for state 43:                  -766.87503005 au
    Multiplicity: Singlet
    Trans. Mom.:  0.0058 X   0.0075 Y  -0.1430 Z
    Strength   :     0.0032043391
    D(   54) --> V(    1) amplitude =  0.2439
    D(   59) --> V(    5) amplitude = -0.5335
    D(   59) --> V(    6) amplitude =  0.8017

 Excited state  44: excitation energy (eV) =    6.3739
 Total energy for state 44:                  -766.87492432 au
    Multiplicity: Triplet
    Trans. Mom.:  0.0000 X   0.0000 Y   0.0000 Z
    Strength   :     0.0000000000
    D(   54) --> V(    1) amplitude =  0.2254
    D(   59) --> V(    5) amplitude = -0.4399
    D(   59) --> V(    6) amplitude =  0.8637

 Excited state  45: excitation energy (eV) =    6.5122
 Total energy for state 45:                  -766.86984245 au
    Multiplicity: Triplet
    Trans. Mom.:  0.0000 X   0.0000 Y   0.0000 Z
    Strength   :     0.0000000000
    D(   60) --> V(    8) amplitude =  0.9569
    D(   60) --> V(   11) amplitude =  0.2233

 Excited state  46: excitation energy (eV) =    6.5397
 Total energy for state 46:                  -766.86883268 au
    Multiplicity: Singlet
    Trans. Mom.: -0.0112 X   0.0044 Y  -0.0182 Z
    Strength   :     0.0000758898
    D(   60) --> V(    8) amplitude =  0.9655

 Excited state  47: excitation energy (eV) =    6.5673
 Total energy for state 47:                  -766.86781860 au
    Multiplicity: Triplet
    Trans. Mom.:  0.0000 X   0.0000 Y   0.0000 Z
    Strength   :     0.0000000000
    D(   58) --> V(    7) amplitude =  0.3735
    D(   60) --> V(    7) amplitude =  0.9174

 Excited state  48: excitation energy (eV) =    6.5759
 Total energy for state 48:                  -766.86750188 au
    Multiplicity: Singlet
    Trans. Mom.:  0.0116 X   0.0017 Y  -0.0589 Z
    Strength   :     0.0005804630
    D(   60) --> V(    7) amplitude =  0.9821

 Excited state  49: excitation energy (eV) =    6.5932
 Total energy for state 49:                  -766.86686624 au
    Multiplicity: Singlet
    Trans. Mom.:  1.6444 X  -0.0263 Y   0.0105 Z
    Strength   :     0.4369181658
    D(   53) --> V(    1) amplitude =  0.8348
    D(   57) --> V(    2) amplitude = -0.3397
    D(   60) --> V(    5) amplitude =  0.2136
    D(   60) --> V(    6) amplitude =  0.2433

 Excited state 100: excitation energy (eV) =    7.6368

                    Orbital Energies (a.u.)
 --------------------------------------------------------------

 Alpha MOs
 -- Occupied --
-19.3728 -19.3564 -19.3157 -10.5092 -10.4070 -10.3834 -10.3571 -10.3546
-10.3435 -10.3353 -10.3253 -10.3011 -10.2895 -10.2894 -10.2822 -10.2810
-10.2809  -1.3229  -1.2423  -1.2278  -1.0285  -0.9817  -0.9445  -0.9200
 -0.9069  -0.8598  -0.8491  -0.8224  -0.8044  -0.7828  -0.7297  -0.7233
 -0.7139  -0.7077  -0.6989  -0.6678  -0.6425  -0.6327  -0.6114  -0.5993
 -0.5985  -0.5937  -0.5784  -0.5750  -0.5562  -0.5508  -0.5469  -0.5401
 -0.5334  -0.5247  -0.5174  -0.4995  -0.4988  -0.4818  -0.4612  -0.4548
 -0.4231  -0.3965  -0.3711  -0.3674

          Ground-State Mulliken Net Atomic Charges

     Atom                 Charge (a.u.)
  ----------------------------------------
      1 H                     0.156703
      2 C                    -0.719692
      3 C                     1.052692
      4 C                    -0.322325
      5 H                     0.429414
      6 C                    -0.699265
      7 H                     0.415791
      8 C                     0.722711
      9 C                    -0.873262
     10 H                     0.299114
     11 O                    -0.439374
     12 C                     0.624140
     13 O                    -0.394782
     14 O                    -0.122373
     15 C                    -0.434319
     16 H                     0.332485
     17 C                    -0.523745
     18 H                     0.335136
     19 C                    -0.461617
     20 C                     0.932729
     21 H                     0.326792
     22 C                    -0.428357
     23 H                     0.331754
     24 C                    -0.523322
     25 H                     0.327078
     26 C                    -0.793511
     27 H                     0.297053
     28 H                     0.412892
     29 H                     0.419398
     30 H                     0.320064
  ----------------------------------------
  Sum of atomic charges =     1.000000

                    Cartesian Multipole Moments
 -----------------------------------------------------------------
    Charge (ESU x 10^10)
                 4.8032
    Dipole Moment (Debye)
         X       5.8099      Y      -3.3610      Z       0.0053
       Tot       6.7120
    Quadrupole Moments (Debye-Ang)
        XX     -24.6411     XY     -10.4095     YY     -78.2139
        XZ       0.6606     YZ      -0.2754     ZZ     -92.1803

 Total job time:  27327.46s(wall), 207265.16s(cpu)
        *  Thank you very much for using Q-Chem.  Have a nice day.  *
