 Q-Chem 5.4, Q-Chem, Inc., Pleasanton, CA (2021)
 Q-Chem 5.4.0 for Intel X86 EM64T Linux

User input:
--------------------------------------------------------------
$molecule
0 1
C      2.7240725446   -0.4545996598   -0.1402942876
C      1.7200425977    0.6854451324   -0.1808016141
C      0.4069365660    0.6162631922   -0.0857643483
C     -0.4066969470   -0.6163224339    0.0860356860
C     -1.7200380028   -0.6855789094    0.1810954689
C     -2.7241642982    0.4543961968    0.1408007273
H      3.4219287035   -0.3104198345    0.6820726189
H      3.3046895530   -0.4756569932   -1.0603643944
H      2.2481955465   -1.4199269224   -0.0167118522
H      2.1720984296    1.6638850130   -0.3042097249
H     -0.1487352588    1.5432074425   -0.1361672007
H      0.1490816410   -1.5432060546    0.1363935284
H     -2.1721312464   -1.6640184598    0.3043537430
H     -3.3048364866    0.4751998063    1.0608409523
H     -3.4219610290    0.3103451163   -0.6816381831
H     -2.2483645753    1.4197932475    0.0174791986
****
C     -1.9114264300   -0.8715469047   -0.0366485340
C     -0.6016127469   -0.2138436104   -0.5083727320
C     -0.5064773120    1.3098075822   -0.4180300718
C      0.5061615625    1.3098952038    0.4176594439
C      0.6014663201   -0.2137785552    0.5081767074
C      1.9114373323   -0.8713843429    0.0367353388
H     -1.7911160197   -1.9487902102    0.0377024574
H     -2.7140226817   -0.6674441561   -0.7400218001
H     -2.2064007544   -0.4916340469    0.9369186763
H     -0.3238300812   -0.6117149184   -1.4855048593
H     -1.0915688335    2.0854271920   -0.8936487442
H      1.0921293712    2.0844913792    0.8938749964
H      0.3235824606   -0.6115782756    1.4853112623
H      1.7912455687   -1.9486468340   -0.0375216476
H      2.7139077102   -0.6671275667    0.7402083043
H      2.2065174469   -0.4915425225   -0.9368268341
$end

$rem
method = hf
basis = sto-3g
jobtype = fsm
fsm_nnode = 4
fsm_ngrad = 3
fsm_mode = 2
fsm_opt_mode = 1
symmetry = false
sym_ignore = true
$end
--------------------------------------------------------------

   11    -230.1875464839      3.06e-09  Convergence criterion met
 Total energy in the final basis set =     -230.1875464839
   12    -230.2055042875      2.10e-09  Convergence criterion met
 Total energy in the final basis set =     -230.2055042875
   12    -230.1395816381      9.02e-09  Convergence criterion met
 Total energy in the final basis set =     -230.1395816381
   12    -230.1361596119      3.39e-09  Convergence criterion met
 Total energy in the final basis set =     -230.1361596119
   12    -230.1531424891      4.81e-09  Convergence criterion met
 Total energy in the final basis set =     -230.1531424891
   12    -230.1531424891      4.81e-09  Convergence criterion met
 Total energy in the final basis set =     -230.1531424891
   13    -230.0616656251      2.05e-09  Convergence criterion met
 Total energy in the final basis set =     -230.0616656251
   13    -230.0824909745      3.15e-09  Convergence criterion met
 Total energy in the final basis set =     -230.0460341629
   13    -230.0467699826      5.35e-09  Convergence criterion met
 Total energy in the final basis set =     -230.0467699826
   13    -230.0460542643      5.43e-09  Convergence criterion met
 Total energy in the final basis set =     -230.0460542643
   13    -230.0467500126      5.36e-09  Convergence criterion met
 Total energy in the final basis set =     -230.0467500126
   13    -230.0460709307      5.42e-09  Convergence criterion met
 Total energy in the final basis set =     -230.0460709307
   13    -230.0467333899      5.37e-09  Convergence criterion met
 Total energy in the final basis set =     -230.0467333899
   13    -230.0460739615      5.42e-09  Convergence criterion met
 Total energy in the final basis set =     -230.0460739615
   13    -230.0467303978      5.36e-09  Convergence criterion met
 Total energy in the final basis set =     -230.0467303978

                    Orbital Energies (a.u.)
 --------------------------------------------------------------

 Alpha MOs
 -- Occupied --
-11.0465 -11.0458 -11.0150 -11.0148 -11.0091 -11.0072  -1.0403  -0.9777
 -0.9033  -0.8498  -0.7303  -0.6572  -0.6028  -0.5874  -0.5305  -0.5167
 -0.5141  -0.4866  -0.4805  -0.4655  -0.4223  -0.2571  -0.2473

          Ground-State Mulliken Net Atomic Charges

     Atom                 Charge (a.u.)
  ----------------------------------------
      1 C                    -0.167866
      2 C                    -0.051394
      3 C                    -0.068344
      4 C                    -0.071006
      5 C                    -0.049756
      6 C                    -0.169620
      7 H                     0.059942
      8 H                     0.063024
      9 H                     0.064760
     10 H                     0.044992
     11 H                     0.056317
     12 H                     0.055475
     13 H                     0.045176
     14 H                     0.060011
     15 H                     0.063503
     16 H                     0.064786
  ----------------------------------------
  Sum of atomic charges =     0.000000

                    Cartesian Multipole Moments
 -----------------------------------------------------------------
    Charge (ESU x 10^10)
                 0.0000
    Dipole Moment (Debye)
         X       0.0088      Y      -0.0054      Z      -0.0040
       Tot       0.0111
    Quadrupole Moments (Debye-Ang)
        XX     -34.2580     XY      -0.0543     YY     -35.5564
        XZ      -0.1484     YZ      -0.0897     ZZ     -36.3021

             Standard Nuclear Orientation (Angstroms)
    I     Atom           X                Y                Z
 ----------------------------------------------------------------
    1      C       2.2888373679    -0.3769689030     0.3965081699
    2      C       1.2598669904     0.6668182438    -0.0603236934
    3      C       0.3999835105     0.4976659714    -1.0852878526
    4      C      -0.5428336542    -0.6796189979    -0.9199801111
    5      C      -1.2591946822    -0.6538779210     0.2249644394
    6      C      -2.2270910669     0.4697958235     0.6171853385
    7      H       2.7093501067    -0.2062450840     1.3908172570
    8      H       3.1363399266    -0.2531439172    -0.2978306927
    9      H       1.9853788348    -1.4191011659     0.3035007543
   10      H       1.6307627981     1.6632437270     0.1071190629
   11      H       0.2741903634     1.2394202668    -1.8574237175
   12      H      -0.5040657620    -1.5627368122    -1.5375834220
   13      H      -1.5847000957    -1.5969137625     0.6280525644
   14      H      -2.5040078480     0.4925801382     1.6736589670
   15      H      -3.1580331213     0.2303025078     0.0802342536
   16      H      -1.9489180588     1.4712287501     0.2911378099
 ----------------------------------------------------------------

 Total job time:  19.88s(wall), 18.15s(cpu)
        *  Thank you very much for using Q-Chem.  Have a nice day.  *
