 Q-Chem 5.4 (devel), Q-Chem, Inc., Pleasanton, CA (2021)
 Q-Chem 5.4.0 for Intel X86 EM64T Linux

User input:
--------------------------------------------------------------
$molecule
0 1
C      2.7240725446   -0.4545996598   -0.1402942876
C      1.7200425977    0.6854451324   -0.1808016141
C      0.4069365660    0.6162631922   -0.0857643483
C     -0.4066969470   -0.6163224339    0.0860356860
C     -1.7200380028   -0.6855789094    0.1810954689
C     -2.7241642982    0.4543961968    0.1408007273
H      3.4219287035   -0.3104198345    0.6820726189
H      3.3046895530   -0.4756569932   -1.0603643944
H      2.2481955465   -1.4199269224   -0.0167118522
H      2.1720984296    1.6638850130   -0.3042097249
H     -0.1487352588    1.5432074425   -0.1361672007
H      0.1490816410   -1.5432060546    0.1363935284
H     -2.1721312464   -1.6640184598    0.3043537430
H     -3.3048364866    0.4751998063    1.0608409523
H     -3.4219610290    0.3103451163   -0.6816381831
H     -2.2483645753    1.4197932475    0.0174791986
****
C     -1.9114264300   -0.8715469047   -0.0366485340
C     -0.6016127469   -0.2138436104   -0.5083727320
C     -0.5064773120    1.3098075822   -0.4180300718
C      0.5061615625    1.3098952038    0.4176594439
C      0.6014663201   -0.2137785552    0.5081767074
C      1.9114373323   -0.8713843429    0.0367353388
H     -1.7911160197   -1.9487902102    0.0377024574
H     -2.7140226817   -0.6674441561   -0.7400218001
H     -2.2064007544   -0.4916340469    0.9369186763
H     -0.3238300812   -0.6117149184   -1.4855048593
H     -1.0915688335    2.0854271920   -0.8936487442
H      1.0921293712    2.0844913792    0.8938749964
H      0.3235824606   -0.6115782756    1.4853112623
H      1.7912455687   -1.9486468340   -0.0375216476
H      2.7139077102   -0.6671275667    0.7402083043
H      2.2065174469   -0.4915425225   -0.9368268341
$end

$rem
method = hf
basis = sto-3g
jobtype = fsm
fsm_nnode = 10
fsm_ngrad = 3
fsm_mode = 2
fsm_opt_mode = 2
$end
--------------------------------------------------------------

   11    -230.1875464839      3.06e-09  Convergence criterion met
 Total energy in the final basis set =     -230.1875464839
   12    -230.2055042875      2.10e-09  Convergence criterion met
 Total energy in the final basis set =     -230.2055042875
   11    -230.1798896469      5.74e-09  Convergence criterion met
 Total energy in the final basis set =     -230.1798896469
   11    -230.1788731672      4.08e-09  Convergence criterion met
 Total energy in the final basis set =     -230.1788731672
   12    -230.1787940562      4.08e-09  Convergence criterion met
 Total energy in the final basis set =     -230.1787940562
   12    -230.1787940562      4.08e-09  Convergence criterion met
 Total energy in the final basis set =     -230.1787940562
   12    -230.1725749142      3.12e-09  Convergence criterion met
 Total energy in the final basis set =     -230.1725749142
   12    -230.1846144491      2.69e-09  Convergence criterion met
 Total energy in the final basis set =     -230.0056494332
   14    -230.0047965549      3.02e-09  Convergence criterion met
 Total energy in the final basis set =     -230.0047965549
   14    -230.0056465064      3.06e-09  Convergence criterion met
 Total energy in the final basis set =     -230.0056465064
   14    -230.0048046522      3.01e-09  Convergence criterion met
 Total energy in the final basis set =     -230.0048046522
   14    -230.0056272368      3.07e-09  Convergence criterion met
 Total energy in the final basis set =     -230.0056272368
   14    -230.0048309282      3.00e-09  Convergence criterion met
 Total energy in the final basis set =     -230.0048309282
   14    -230.0056219294      3.03e-09  Convergence criterion met
 Total energy in the final basis set =     -230.0056219294
   14    -230.0048413728      3.03e-09  Convergence criterion met
 Total energy in the final basis set =     -230.0048413728

                    Orbital Energies (a.u.)
 --------------------------------------------------------------

 Alpha MOs
 -- Occupied --
-11.0443 -11.0443 -11.0306 -11.0303 -11.0041 -11.0036  -1.0597  -0.9581
 -0.9113  -0.8243  -0.7471  -0.6490  -0.6182  -0.5688  -0.5353  -0.5157
 -0.5151  -0.4736  -0.4721  -0.4393  -0.4300  -0.2497  -0.2470

          Ground-State Mulliken Net Atomic Charges

     Atom                 Charge (a.u.)
  ----------------------------------------
      1 C                    -0.172398
      2 C                    -0.025293
      3 C                    -0.072183
      4 C                    -0.072148
      5 C                    -0.025369
      6 C                    -0.172325
      7 H                     0.062133
      8 H                     0.061587
      9 H                     0.063417
     10 H                     0.029837
     11 H                     0.053054
     12 H                     0.052929
     13 H                     0.029766
     14 H                     0.062081
     15 H                     0.061538
     16 H                     0.063376
  ----------------------------------------
  Sum of atomic charges =     0.000000

                    Cartesian Multipole Moments
 -----------------------------------------------------------------
    Charge (ESU x 10^10)
                -0.0000
    Dipole Moment (Debye)
         X      -0.0032      Y       0.0004      Z      -0.0378
       Tot       0.0380
    Quadrupole Moments (Debye-Ang)
        XX     -34.0603     XY       0.3188     YY     -35.8796
        XZ      -0.2069     YZ      -0.1078     ZZ     -36.7503

             Standard Nuclear Orientation (Angstroms)
    I     Atom           X                Y                Z
 ----------------------------------------------------------------
    1      C       2.0386536161    -0.4041936567     0.4434404621
    2      C       0.8200560285     0.5019336693     0.0267482737
    3      C       0.3466149384     0.3941230726    -1.3215020316
    4      C      -0.5152403257    -0.6374707135    -1.1654543673
    5      C      -0.8061781834    -0.4830199301     0.2295734863
    6      C      -1.9699598262     0.5018806949     0.6249194102
    7      H       2.2442620520    -0.3291490626     1.5049673198
    8      H       2.9622163425    -0.0712082724    -0.0638929484
    9      H       1.9050530117    -1.4442179024     0.1755639687
   10      H       1.1044560988     1.5223117170     0.3226232393
   11      H       0.4625067258     1.1313358444    -2.1026782363
   12      H      -0.7308718398    -1.5028106134    -1.7753273848
   13      H      -1.0368527873    -1.4250754558     0.7477038687
   14      H      -2.0315518232     0.6316380085     1.6993331180
   15      H      -2.9488550103     0.0911145461     0.3177762170
   16      H      -1.8865657809     1.4707623269     0.1500010318
 ----------------------------------------------------------------

 Total job time:  26.05s(wall), 23.32s(cpu)
        *  Thank you very much for using Q-Chem.  Have a nice day.  *
