 Q-Chem 5.4 (devel), Q-Chem, Inc., Pleasanton, CA (2021)
 Q-Chem 5.4.0 for Intel X86 EM64T Linux

User input:
--------------------------------------------------------------
$molecule
0 1
C      2.7240725446   -0.4545996598   -0.1402942876
C      1.7200425977    0.6854451324   -0.1808016141
C      0.4069365660    0.6162631922   -0.0857643483
C     -0.4066969470   -0.6163224339    0.0860356860
C     -1.7200380028   -0.6855789094    0.1810954689
C     -2.7241642982    0.4543961968    0.1408007273
H      3.4219287035   -0.3104198345    0.6820726189
H      3.3046895530   -0.4756569932   -1.0603643944
H      2.2481955465   -1.4199269224   -0.0167118522
H      2.1720984296    1.6638850130   -0.3042097249
H     -0.1487352588    1.5432074425   -0.1361672007
H      0.1490816410   -1.5432060546    0.1363935284
H     -2.1721312464   -1.6640184598    0.3043537430
H     -3.3048364866    0.4751998063    1.0608409523
H     -3.4219610290    0.3103451163   -0.6816381831
H     -2.2483645753    1.4197932475    0.0174791986
****
C     -1.9114264300   -0.8715469047   -0.0366485340
C     -0.6016127469   -0.2138436104   -0.5083727320
C     -0.5064773120    1.3098075822   -0.4180300718
C      0.5061615625    1.3098952038    0.4176594439
C      0.6014663201   -0.2137785552    0.5081767074
C      1.9114373323   -0.8713843429    0.0367353388
H     -1.7911160197   -1.9487902102    0.0377024574
H     -2.7140226817   -0.6674441561   -0.7400218001
H     -2.2064007544   -0.4916340469    0.9369186763
H     -0.3238300812   -0.6117149184   -1.4855048593
H     -1.0915688335    2.0854271920   -0.8936487442
H      1.0921293712    2.0844913792    0.8938749964
H      0.3235824606   -0.6115782756    1.4853112623
H      1.7912455687   -1.9486468340   -0.0375216476
H      2.7139077102   -0.6671275667    0.7402083043
H      2.2065174469   -0.4915425225   -0.9368268341
$end

$rem
method = hf
basis = sto-3g
jobtype = fsm
fsm_nnode = 10
fsm_ngrad = 3
fsm_mode = 2
fsm_opt_mode = 1
$end
--------------------------------------------------------------

   11    -230.1875464839      3.06e-09  Convergence criterion met
 Total energy in the final basis set =     -230.1875464839
   12    -230.2055042875      2.10e-09  Convergence criterion met
 Total energy in the final basis set =     -230.2055042875
   11    -230.1798896469      5.74e-09  Convergence criterion met
 Total energy in the final basis set =     -230.1798896469
   11    -230.1740399215      4.37e-09  Convergence criterion met
 Total energy in the final basis set =     -230.1740399215
   12    -230.1725524970      4.61e-09  Convergence criterion met
 Total energy in the final basis set =     -230.1725524970
   12    -230.1725524970      4.61e-09  Convergence criterion met
 Total energy in the final basis set =     -230.1725524970
   12    -230.1725749142      3.12e-09  Convergence criterion met
 Total energy in the final basis set =     -230.1725749142
   12    -230.1847636127      2.27e-09  Convergence criterion met
 Total energy in the final basis set =     -230.0051830373
   13    -230.0040150166      9.10e-09  Convergence criterion met
 Total energy in the final basis set =     -230.0040150166
   13    -230.0051624721      8.60e-09  Convergence criterion met
 Total energy in the final basis set =     -230.0051624721
   13    -230.0040389668      9.08e-09  Convergence criterion met
 Total energy in the final basis set =     -230.0040389668
   13    -230.0051445487      8.64e-09  Convergence criterion met
 Total energy in the final basis set =     -230.0051445487
   13    -230.0040610342      9.07e-09  Convergence criterion met
 Total energy in the final basis set =     -230.0040610342
   13    -230.0051856515      8.59e-09  Convergence criterion met
 Total energy in the final basis set =     -230.0051856515
   13    -230.0040231632      9.12e-09  Convergence criterion met
 Total energy in the final basis set =     -230.0040231632

                    Orbital Energies (a.u.)
 --------------------------------------------------------------

 Alpha MOs
 -- Occupied --
-11.0416 -11.0415 -11.0359 -11.0352 -11.0079 -11.0069  -1.0745  -0.9562
 -0.9120  -0.8185  -0.7527  -0.6400  -0.6152  -0.5685  -0.5339  -0.5103
 -0.5100  -0.4750  -0.4732  -0.4366  -0.4307  -0.2590  -0.2555

          Ground-State Mulliken Net Atomic Charges

     Atom                 Charge (a.u.)
  ----------------------------------------
      1 C                    -0.169560
      2 C                    -0.020366
      3 C                    -0.067499
      4 C                    -0.069028
      5 C                    -0.023279
      6 C                    -0.169191
      7 H                     0.058443
      8 H                     0.058495
      9 H                     0.059348
     10 H                     0.033864
     11 H                     0.048241
     12 H                     0.049289
     13 H                     0.035148
     14 H                     0.058175
     15 H                     0.058320
     16 H                     0.059600
  ----------------------------------------
  Sum of atomic charges =     0.000000

                    Cartesian Multipole Moments
 -----------------------------------------------------------------
    Charge (ESU x 10^10)
                -0.0000
    Dipole Moment (Debye)
         X       0.0068      Y       0.0125      Z       0.0048
       Tot       0.0150
    Quadrupole Moments (Debye-Ang)
        XX     -34.3489     XY       0.4712     YY     -35.6982
        XZ      -0.2131     YZ      -0.1696     ZZ     -36.9392

             Standard Nuclear Orientation (Angstroms)
    I     Atom           X                Y                Z
 ----------------------------------------------------------------
    1      C       2.0058911594    -0.4137671873     0.4421884913
    2      C       0.7743772590     0.4882852192     0.0382108241
    3      C       0.3488643959     0.3594300604    -1.3257143936
    4      C      -0.5191682812    -0.6148984856    -1.1692299236
    5      C      -0.7602490006    -0.4712827470     0.2383415785
    6      C      -1.9352411180     0.5098892477     0.6165222431
    7      H       2.2478513193    -0.3638461587     1.5040328258
    8      H       2.9169666498    -0.0569805968    -0.0689561648
    9      H       1.9045972217    -1.4605636157     0.1539642375
   10      H       1.0601173096     1.4995404596     0.3825556305
   11      H       0.4600424173     1.1500687493    -2.1009825981
   12      H      -0.7317775423    -1.5173462679    -1.7674943786
   13      H      -0.9854342821    -1.3929119358     0.7973651794
   14      H      -2.0335331624     0.6655686843     1.6915299855
   15      H      -2.9033852343     0.0759749080     0.3099231761
   16      H      -1.8875649174     1.4819643295     0.1252283802
 ----------------------------------------------------------------

 Total job time:  45.09s(wall), 41.86s(cpu)
        *  Thank you very much for using Q-Chem.  Have a nice day.  *
