 Q-Chem 5.4 (devel), Q-Chem, Inc., Pleasanton, CA (2021)
 Q-Chem 5.4.0 for Intel X86 EM64T Linux

User input:
--------------------------------------------------------------
$molecule
0 1
N       0.2218708968     0.0191523619     0.3387588730
H       1.0835418354    -0.4572129791     0.0837729731
H      -0.5319550055    -0.4931545814    -0.1125571145
H       0.2561422733     0.9312151986    -0.1099747317
****
N       0.2218708968     0.0191523619    -0.3387588730
H       1.0835418354    -0.4572129791    -0.0837729731
H      -0.5319550055    -0.4931545814     0.1125571145
H       0.2561422733     0.9312151986     0.1099747317
$end

$rem
 JOBTYPE         fsm
 MEM_TOTAL       1000
 MEM_STATIC      200
 FSM_NGRAD       2
 FSM_NNODE       5
 FSM_MODE        2
 FSM_OPT_MODE    2
 METHOD          HF
 BASIS           6-31G*
$end
--------------------------------------------------------------

   11     -56.1838207413      2.65e-09  Convergence criterion met
 Total energy in the final basis set =      -56.1838207413
   11     -56.1838207414      2.65e-09  Convergence criterion met
 Total energy in the final basis set =      -56.1838207414
   11     -56.1839439561      2.70e-09  Convergence criterion met
 Total energy in the final basis set =      -56.1839439561
   11     -56.1839439566      2.70e-09  Convergence criterion met
 Total energy in the final basis set =      -56.1839439566
   11     -56.1839432651      2.70e-09  Convergence criterion met
 Total energy in the final basis set =      -56.1839432651
   11     -56.1839432655      2.70e-09  Convergence criterion met
 Total energy in the final basis set =      -56.1839432655
   11     -56.1837845353      2.77e-09  Convergence criterion met
 Total energy in the final basis set =      -56.1837845353
   11     -56.1837845357      2.77e-09  Convergence criterion met
 Total energy in the final basis set =      -56.1738913003
   10     -56.1739046668      9.86e-09  Convergence criterion met
 Total energy in the final basis set =      -56.1739046668
   10     -56.1738913826      5.18e-09  Convergence criterion met
 Total energy in the final basis set =      -56.1738913826
   10     -56.1739049267      9.93e-09  Convergence criterion met
 Total energy in the final basis set =      -56.1739049267
   10     -56.1738914415      5.24e-09  Convergence criterion met
 Total energy in the final basis set =      -56.1738914415
   11     -56.1739051953      2.61e-09  Convergence criterion met
 Total energy in the final basis set =      -56.1739051953
   10     -56.1738914636      5.27e-09  Convergence criterion met
 Total energy in the final basis set =      -56.1738914636
   11     -56.1739053817      2.62e-09  Convergence criterion met
 Total energy in the final basis set =      -56.1739053817

                    Orbital Energies (a.u.)
 --------------------------------------------------------------

 Alpha MOs
 -- Occupied --
-15.5164  -1.1157  -0.6431  -0.6428  -0.3790

          Ground-State Mulliken Net Atomic Charges

     Atom                 Charge (a.u.)
  ----------------------------------------
      1 N                    -1.082819
      2 H                     0.360868
      3 H                     0.361042
      4 H                     0.360909
  ----------------------------------------
  Sum of atomic charges =     0.000000

                    Cartesian Multipole Moments
 -----------------------------------------------------------------
    Charge (ESU x 10^10)
                 0.0000
    Dipole Moment (Debye)
         X       0.0087      Y      -0.0040      Z      -0.0586
       Tot       0.0594
    Quadrupole Moments (Debye-Ang)
        XX      -5.4925     XY       0.0386     YY      -5.4507
        XZ       0.4968     YZ      -0.2792     ZZ      -9.2816

             Standard Nuclear Orientation (Angstroms)
    I     Atom           X                Y                Z
 ----------------------------------------------------------------
    1      N       0.2597164017     0.0039772341     0.0232268377
    2      H       1.1174489470    -0.4708260730     0.1670476669
    3      H      -0.5840362418    -0.5097939812    -0.0563701249
    4      H       0.2480792419     0.9917675189    -0.0546755127
 ----------------------------------------------------------------

 Total job time:  18.23s(wall), 11.79s(cpu)
        *  Thank you very much for using Q-Chem.  Have a nice day.  *
