 Output coordinates in angstroms (scale by  1.889725989 to convert to a.u.)

  No.       Tag          Charge          X              Y              Z
 ---- ---------------- ---------- -------------- -------------- --------------
    1 O                    8.0000     0.00000000     0.00000000     0.11926200
    2 H                    1.0000     0.00000000     0.76323900    -0.47704700
    3 H                    1.0000     0.00000000    -0.76323900    -0.47704700

         Total DFT energy =      -76.377737160463

                       DFT Final Molecular Orbital Analysis
                       ------------------------------------

 Vector    1  Occ=2.000000D+00  E=-1.920800D+01

 Vector    2  Occ=2.000000D+00  E=-1.035887D+00

 Vector    3  Occ=2.000000D+00  E=-5.415701D-01

 Vector    4  Occ=2.000000D+00  E=-4.037563D-01

 Vector    5  Occ=2.000000D+00  E=-3.265173D-01

 Vector    6  Occ=0.000000D+00  E= 2.822551D-02

 Vector    7  Occ=0.000000D+00  E= 1.036669D-01

 Vector    8  Occ=0.000000D+00  E= 3.693177D-01

 Vector    9  Occ=0.000000D+00  E= 4.121503D-01

 Vector   10  Occ=0.000000D+00  E= 4.188965D-01

 Vector   11  Occ=0.000000D+00  E= 4.342843D-01

 Vector   12  Occ=0.000000D+00  E= 5.649167D-01

 Vector   13  Occ=0.000000D+00  E= 5.791958D-01

 Vector   14  Occ=0.000000D+00  E= 1.166142D+00

 Vector   15  Occ=0.000000D+00  E= 1.196585D+00

 Vector   16  Occ=0.000000D+00  E= 1.300550D+00

 Vector   17  Occ=0.000000D+00  E= 1.538234D+00

 Vector   18  Occ=0.000000D+00  E= 1.638636D+00

 Vector   19  Occ=0.000000D+00  E= 1.752540D+00

 Vector   20  Occ=0.000000D+00  E= 1.860602D+00

 Vector   21  Occ=0.000000D+00  E= 1.960708D+00

 Vector   22  Occ=0.000000D+00  E= 2.080984D+00

 Vector   23  Occ=0.000000D+00  E= 2.105714D+00

 Vector   24  Occ=0.000000D+00  E= 2.131174D+00

 Vector   25  Occ=0.000000D+00  E= 2.203928D+00

 Vector   26  Occ=0.000000D+00  E= 2.372638D+00

 Vector   27  Occ=0.000000D+00  E= 2.411664D+00

 Vector   28  Occ=0.000000D+00  E= 2.474041D+00

 Vector   29  Occ=0.000000D+00  E= 3.354882D+00

 Vector   30  Occ=0.000000D+00  E= 3.725784D+00

 Vector   31  Occ=0.000000D+00  E= 5.113851D+00

 Vector   32  Occ=0.000000D+00  E= 5.216008D+00

 Vector   33  Occ=0.000000D+00  E= 5.371949D+00

 Vector   34  Occ=0.000000D+00  E= 5.414745D+00

 Vector   35  Occ=0.000000D+00  E= 5.459498D+00

 Vector   36  Occ=0.000000D+00  E= 5.673551D+00

 Vector   37  Occ=0.000000D+00  E= 5.679349D+00

 Vector   38  Occ=0.000000D+00  E= 5.769515D+00

 Vector   39  Occ=0.000000D+00  E= 6.035206D+00

 Vector   40  Occ=0.000000D+00  E= 6.217830D+00

 Vector   41  Occ=0.000000D+00  E= 6.312657D+00

 Vector   42  Occ=0.000000D+00  E= 6.335191D+00

 Vector   43  Occ=0.000000D+00  E= 6.390551D+00

 Vector   44  Occ=0.000000D+00  E= 6.455742D+00

 Vector   45  Occ=0.000000D+00  E= 6.916175D+00

 Vector   46  Occ=0.000000D+00  E= 7.076137D+00

 Vector   47  Occ=0.000000D+00  E= 1.645043D+01

 Vector   48  Occ=0.000000D+00  E= 7.166336D+01

     Multipole analysis of the density
     ---------------------------------

     L   x y z        total         alpha         beta         nuclear
     -   - - -        -----         -----         ----         -------
     0   0 0 0     -0.000000     -5.000000     -5.000000     10.000000

     1   1 0 0      0.000000      0.000000      0.000000      0.000000
     1   0 1 0      0.000000      0.000000      0.000000      0.000000
     1   0 0 1     -0.821865     -0.410935     -0.410935      0.000004

     2   2 0 0     -5.620452     -2.810226     -2.810226      0.000000
     2   1 1 0     -0.000000     -0.000000     -0.000000      0.000000
     2   1 0 1      0.000000      0.000000      0.000000      0.000000
     2   0 2 0     -3.221214     -3.690872     -3.690872      4.160531
     2   0 1 1      0.000000      0.000000      0.000000      0.000000

 Total times  cpu:        1.0s     wall:        1.0s
