                         Program Version 4.0.1.2 - RELEASE -
|  1> ! RKS PBE 6-31G*
|  2>
|  3> *xyz 0 1
|  4> # comment
|  5> C          1.75000        0.00000        0.59225
|  6> C         -1.75000        0.00000        0.59225
|  7> O          1.75000        0.00000       -0.59537
|  8> O         -1.75000        0.00000       -0.59537
|  9> H          1.75000        0.92490        1.17073
| 10> H         -1.75000        0.92490        1.17073
| 11> H          1.75000       -0.92490        1.17073
| 12> H         -1.75000       -0.92490        1.17073
| 13>
| 14> *
| 15>
| 16>                          ****END OF INPUT****

CARTESIAN COORDINATES (ANGSTROEM)
---------------------------------
  C      1.750000    0.000000    0.592250
  C     -1.750000    0.000000    0.592250
  O      1.750000    0.000000   -0.595370
  O     -1.750000    0.000000   -0.595370
  H      1.750000    0.924900    1.170730
  H     -1.750000    0.924900    1.170730
  H      1.750000   -0.924900    1.170730
  H     -1.750000   -0.924900    1.170730

 Total Charge           Charge          ....    0
 Multiplicity           Mult            ....    1
 Number of Electrons    NEL             ....   32
 Basis Dimension        Dim             ....   64

ORBITAL ENERGIES
----------------

  NO   OCC          E(Eh)            E(eV)
   0   2.0000     -18.783361      -511.1212
   1   2.0000     -18.783355      -511.1211
   2   2.0000      -9.978224      -271.5213
   3   2.0000      -9.978195      -271.5205
   4   2.0000      -0.979353       -26.6496
   5   2.0000      -0.978421       -26.6242
   6   2.0000      -0.576857       -15.6971
   7   2.0000      -0.573417       -15.6035
   8   2.0000      -0.446320       -12.1450
   9   2.0000      -0.443921       -12.0797
  10   2.0000      -0.390823       -10.6348
  11   2.0000      -0.389514       -10.5992
  12   2.0000      -0.370736       -10.0882
  13   2.0000      -0.356790        -9.7088
  14   2.0000      -0.215344        -5.8598
  15   2.0000      -0.213331        -5.8050
  16   0.0000      -0.085973        -2.3394
  17   0.0000      -0.063896        -1.7387
  18   0.0000       0.074051         2.0150
  19   0.0000       0.093674         2.5490
  20   0.0000       0.153162         4.1677

MULLIKEN ATOMIC CHARGES
-----------------------
   0 C :    0.024699
   1 C :    0.024699
   2 O :   -0.263681
   3 O :   -0.263681
   4 H :    0.119491
   5 H :    0.119491
   6 H :    0.119491
   7 H :    0.119491
Sum of atomic charges:    0.0000000

LOEWDIN ATOMIC CHARGES
----------------------
   0 C :   -0.055273
   1 C :   -0.055273
   2 O :   -0.127210
   3 O :   -0.127210
   4 H :    0.091241
   5 H :    0.091241
   6 H :    0.091241
   7 H :    0.091241

  Mayer bond orders larger than 0.1
B(  0-C ,  2-O ) :   2.0744 B(  0-C ,  4-H ) :   0.8637 B(  0-C ,  6-H ) :   0.8637
B(  1-C ,  3-O ) :   2.0744 B(  1-C ,  5-H ) :   0.8637 B(  1-C ,  7-H ) :   0.8637

FINAL SINGLE POINT ENERGY      -228.723717938683

DIPOLE MOMENT
-------------
                                X             Y             Z
Electronic contribution:     -0.00000      -0.00000      -2.91409
Nuclear contribution   :      0.00000       0.00000       4.38230
                        -----------------------------------------
Total Dipole Moment    :     -0.00000      -0.00000       1.46821
                        -----------------------------------------
Magnitude (a.u.)       :      1.46821
Magnitude (Debye)      :      3.73189

                             ****ORCA TERMINATED NORMALLY****
TOTAL RUN TIME: 0 days 0 hours 0 minutes 1 seconds 232 msec
