                         Program Version 4.0.0.2 - RELEASE -
|  1> ! TightOpt def2-svp
|  2> ! NumFreq
|  3>
|  4> % casscf
|  5>     NEl     3
|  6>     NOrb    2
|  7> end
|  8>
|  9> * xyz -1 2
| 10>     H  0   0   0
| 11>     H  0   0   1.4
| 12> *
| 13>
| 14>                          ****END OF INPUT****
 Total Charge           Charge          ....   -1
 Multiplicity           Mult            ....    2
 Number of Electrons    NEL             ....    3
FINAL SINGLE POINT ENERGY        -0.970894112493
FINAL SINGLE POINT ENERGY        -0.970909766874
FINAL SINGLE POINT ENERGY        -0.970910901193
                    ***********************HURRAY********************

CARTESIAN COORDINATES (ANGSTROEM)
---------------------------------
  H      0.000000    0.000000    0.011925
  H      0.000000    0.000000    1.388075

 Multiplicity           Mult            ....    2
 Number of Electrons    NEL             ....    3
 Basis Dimension        Dim             ....   10

ORBITAL ENERGIES
----------------

  NO   OCC          E(Eh)            E(eV)
   0   2.0000      -0.123026        -3.3477
   1   1.0000       0.238415         6.4876
   2   0.0000       0.956202        26.0196
   3   0.0000       1.023320        27.8459
   4   0.0000       1.816371        49.4260
   5   0.0000       1.897401        51.6309
   6   0.0000       1.897401        51.6309

MULLIKEN ATOMIC CHARGES AND SPIN DENSITIES
------------------------------------------
   0 H :   -0.500000    0.500000
   1 H :   -0.500000    0.500000
Sum of atomic charges       :   -1.0000000

LOEWDIN ATOMIC CHARGES AND SPIN DENSITIES
-----------------------------------------
   0 H :   -0.500000    0.500000
   1 H :   -0.500000    0.500000

  Mayer bond orders larger than 0.1
B(  0-H ,  1-H ) :   0.3998

FINAL SINGLE POINT ENERGY        -0.970910901128

DIPOLE MOMENT
-------------
                                X             Y             Z
Electronic contribution:     -0.00000      -0.00000       0.00000
Nuclear contribution   :      0.00000       0.00000      -0.00000
                        -----------------------------------------
Total Dipole Moment    :     -0.00000      -0.00000       0.00000
                        -----------------------------------------
Magnitude (a.u.)       :      0.00000
Magnitude (Debye)      :      0.00000

VIBRATIONAL FREQUENCIES
-----------------------

   0:         0.00 cm**-1
   1:         0.00 cm**-1
   2:         0.00 cm**-1
   3:         0.00 cm**-1
   4:         0.00 cm**-1
   5:       942.92 cm**-1

IR SPECTRUM
-----------

 Mode    freq (cm**-1)   T**2         TX         TY         TZ
-------------------------------------------------------------------
   5:       942.92    0.000000  ( -0.000000  -0.000000   0.000000)

--------------------------
THERMOCHEMISTRY AT 298.15K
--------------------------

Temperature         ... 298.15 K
Pressure            ... 1.00 atm
Total Mass          ... 2.02 AMU
The molecule is recognized as being linear

Throughout the following assumptions are being made:
  (1) The electronic state is orbitally nondegenerate
      but the spin degeneracy is treated
  (2) There are no thermally accessible electronically excited states
  (3) Hindered rotations indicated by low frequency modes are not
      treated as such but are treated as vibrations and this may
      cause some error
  (4) All equations used are the standard statistical mechanics
      equations for an ideal gas
  (5) All vibrations are strictly harmonic

freq.     942.92  E(vib)   ...       0.03

------------
INNER ENERGY
------------

The inner energy is: U= E(el) + E(ZPE) + E(vib) + E(rot) + E(trans)
    E(el)   - is the total energy from the electronic structure calculation
              = E(kin-el) + E(nuc-el) + E(el-el) + E(nuc-nuc)
    E(ZPE)  - the the zero temperature vibrational energy from the frequency calculation
    E(vib)  - the the finite temperature correction to E(ZPE) due to population
              of excited vibrational states
    E(rot)  - is the rotational thermal energy
    E(trans)- is the translational thermal energy

Summary of contributions to the inner energy U:
Electronic energy                ...     -0.97091090 Eh
Zero point energy                ...      0.00214814 Eh       1.35 kcal/mol
Thermal vibrational correction   ...      0.00004588 Eh       0.03 kcal/mol
Thermal rotational correction    ...      0.00094418 Eh       0.59 kcal/mol
Thermal translational correction ...      0.00141627 Eh       0.89 kcal/mol
-----------------------------------------------------------------------
Total thermal energy                     -0.96635643 Eh

Summary of corrections to the electronic energy:
(perhaps to be used in another calculation)
Total thermal correction                  0.00240633 Eh       1.51 kcal/mol
Non-thermal (ZPE) correction              0.00214814 Eh       1.35 kcal/mol
-----------------------------------------------------------------------
Total correction                          0.00455447 Eh       2.86 kcal/mol

--------
ENTHALPY
--------

The enthalpy is H = U + kB*T
                kB is Boltzmann's constant
Total free energy                 ...     -0.96635643 Eh
Thermal Enthalpy correction       ...      0.00094421 Eh       0.59 kcal/mol
-----------------------------------------------------------------------
Total Enthalpy                    ...     -0.96541222 Eh

Note: Rotational entropy computed according to Herzberg
Infrared and Raman Spectra, Chapter V,1, Van Nostrand Reinhold, 1945
Point Group:  Dinfh, Symmetry Number:   2
Rotational constants in cm-1:     0.000000    17.661779    17.661779

Vibrational entropy computed according to the QRRHO of S. Grimme
Chem.Eur.J. 2012 18 9955

-------
ENTROPY
-------

The entropy contributions are T*S = T*(S(el)+S(vib)+S(rot)+S(trans))
     S(el)   - electronic entropy
     S(vib)  - vibrational entropy
     S(rot)  - rotational entropy
     S(trans)- translational entropy
The entropies will be listed as mutliplied by the temperature to get
units of energy

Electronic entropy                ...      0.00065446 Eh      0.41 kcal/mol
Vibrational entropy               ...      0.00005594 Eh      0.04 kcal/mol
Rotational entropy                ...      0.00261468 Eh      1.64 kcal/mol
Translational entropy             ...      0.01334204 Eh      8.37 kcal/mol
-----------------------------------------------------------------------
Final entropy term                ...      0.01666712 Eh     10.46 kcal/mol

-------------------
GIBBS FREE ENTHALPY
-------------------

The Gibbs free enthalpy is G = H - T*S

Total enthalpy                    ...     -0.96541222 Eh
Total entropy correction          ...     -0.01666712 Eh    -10.46 kcal/mol
-----------------------------------------------------------------------
Final Gibbs free enthalpy         ...     -0.98207934 Eh

For completeness - the Gibbs free enthalpy minus the electronic energy
G-E(el)                           ...     -0.01116844 Eh     -7.01 kcal/mol

                             ****ORCA TERMINATED NORMALLY****
TOTAL RUN TIME: 0 days 0 hours 0 minutes 22 seconds 500 msec
