 Gaussian 16, Revision A.03,
 Gaussian 16:  ES64L-G16RevA.03 25-Dec-2016

 ----------------------------------------------------------------------
 # UCCSD(T,full)/aug-cc-pVQZ # Guess=Mix Int=(DKH,Grid=UltraFine) # SCF
 =XQC NoSymm geom=nocrowd
 ----------------------------------------------------------------------

 --------------------------------
 H - F single point at R = 0.25 A
 --------------------------------
 Symbolic Z-matrix:
 Charge =  0 Multiplicity = 1

                          Input orientation:
 ---------------------------------------------------------------------
 Center     Atomic      Atomic             Coordinates (Angstroms)
 Number     Number       Type             X           Y           Z
 ---------------------------------------------------------------------
      1          1           0        0.000000    0.000000    0.000000
      2          9           0        0.000000    0.000000    0.250000
 ---------------------------------------------------------------------

 SCF Done:  E(UHF) =  -94.4164186101     A.U. after   12 cycles
 E2 =    -0.3192263023D+00 EUMP2 =    -0.94735644912423D+02
 CCSD(T)= -0.94744547829D+02

 Alpha  occ. eigenvalues --  -26.62067  -1.98921  -1.02471  -0.75040  -0.75040
 Alpha virt. eigenvalues --    0.03407   0.11565   0.13000   0.13000   0.17809
 Alpha virt. eigenvalues --    0.28669   0.29421   0.29421   0.40670   0.51729
 Alpha virt. eigenvalues --    0.51729   0.59609   0.60931   0.60931   0.71966

  Beta  occ. eigenvalues --  -26.62067  -1.98921  -1.02471  -0.75040  -0.75040
  Beta virt. eigenvalues --    0.03407   0.11565   0.13000   0.13000   0.17809
  Beta virt. eigenvalues --    0.28669   0.29421   0.29421   0.40670   0.51729
  Beta virt. eigenvalues --    0.51729   0.59609   0.60931   0.60931   0.71966

 Mulliken charges and spin densities:
               1          2
     1  H   -1.251669   0.000000
     2  F    1.251669  -0.000000
 Sum of Mulliken charges =  -0.00000  -0.00000

 Dipole moment (field-independent basis, Debye):
    X=             -0.0000    Y=             -0.0000    Z=             -0.8657  Tot=              0.8657
 Quadrupole moment (field-independent basis, Debye-Ang):
   XX=             -4.7344   YY=             -4.7344   ZZ=             -4.4763
   XY=              0.0000   XZ=             -0.0000   YZ=              0.0000

 CCSD(T)=-94.7445478\S2=0.\S2-1=0.\S2A=0.\RMSD=7.573e-09\PG=C*V [C*(H1F
 Normal termination of Gaussian 16 at Sat Jun  7 13:01:08 2025.
