 Gaussian 16, Revision C.01,
 Gaussian 16:  ES64L-G16RevC.01  3-Jul-2019

 ----------------------------------------------------------------------
 # freq=noraman pop=nbo opt=(tight,maxcycle=200) b3lyp def2tzvp empiric
 aldispersion=gd3 int=ultrafine scf=(maxcycle=200,tight)
 ----------------------------------------------------------------------

 --------------------------------------------
 Title: dol-1-pen-5-pen structure from SMILES
 --------------------------------------------
 Symbolic Z-matrix:
 Charge =  0 Multiplicity = 3

 SCF Done:  E(UB3LYP) =  -732.634857931     A.U. after   19 cycles
 SCF Done:  E(UB3LYP) =  -732.646063110     A.U. after   17 cycles
 SCF Done:  E(UB3LYP) =  -732.650152630     A.U. after   20 cycles
 SCF Done:  E(UB3LYP) =  -732.650729678     A.U. after   15 cycles
 SCF Done:  E(UB3LYP) =  -732.650881847     A.U. after   15 cycles
 SCF Done:  E(UB3LYP) =  -732.650936250     A.U. after   15 cycles
 SCF Done:  E(UB3LYP) =  -732.650947772     A.U. after   13 cycles
 SCF Done:  E(UB3LYP) =  -732.650948464     A.U. after    9 cycles
 SCF Done:  E(UB3LYP) =  -732.650948650     A.U. after    9 cycles
 SCF Done:  E(UB3LYP) =  -732.650948663     A.U. after    6 cycles
 SCF Done:  E(UB3LYP) =  -732.650948668     A.U. after    6 cycles
 SCF Done:  E(UB3LYP) =  -732.650948669     A.U. after    5 cycles
 SCF Done:  E(UB3LYP) =  -732.650948669     A.U. after    3 cycles
 SCF Done:  E(UB3LYP) =  -732.650948670     A.U. after    4 cycles
 SCF Done:  E(UB3LYP) =  -732.650948670     A.U. after    4 cycles
 SCF Done:  E(UB3LYP) =  -732.650948670     A.U. after    4 cycles
 SCF Done:  E(UB3LYP) =  -732.650948670     A.U. after    3 cycles
 Optimization completed.
    -- Stationary point found.
 Normal termination of Gaussian 16 at Fri Apr 11 18:00:09 2025.

 --------------------------------------------------------------------
 #N Geom=AllCheck Guess=TCheck SCRF=Check GenChk UB3LYP/def2TZVP Freq
 --------------------------------------------------------------------

 Structure from the checkpoint file:  "dol-1-pen-5-pen-trip.chk"
 --------------------------------------------
 Title: dol-1-pen-5-pen structure from SMILES
 --------------------------------------------
 Charge =  0 Multiplicity = 3

                         Standard orientation:
 ---------------------------------------------------------------------
 Center     Atomic      Atomic             Coordinates (Angstroms)
 Number     Number       Type             X           Y           Z
 ---------------------------------------------------------------------
      1          6           0        2.311759   -1.007264    0.083145
      2          6           0        3.549905   -0.362281    0.034290
      3          6           0        3.703394    0.969858    0.508780
      4          6           0        4.934240    1.596764    0.467133
      5          6           0        6.054606    0.929879   -0.030290
      6          6           0        5.928637   -0.382484   -0.487978
      7          6           0        4.704452   -1.022896   -0.458373
      8          6           0        0.945195   -0.747461    0.068943
      9          6           0        0.419065    0.430152   -0.534423
     10          6           0       -0.936569    0.674127   -0.551988
     11          6           0       -1.856662   -0.230118    0.006839
     12          6           0       -3.306607    0.039321   -0.021362
     13          6           0       -4.231725   -0.998625   -0.197392
     14          6           0       -5.596050   -0.744533   -0.224309
     15          6           0       -6.071353    0.554002   -0.074491
     16          6           0       -5.166755    1.595717    0.101746
     17          6           0       -3.802377    1.341763    0.127219
     18          6           0       -1.343346   -1.402347    0.589289
     19          6           0        0.009431   -1.659614    0.624259
     20          1           0        2.840798    1.484775    0.910836
     21          1           0        5.028417    2.612802    0.830593
     22          1           0        7.016098    1.425957   -0.056541
     23          1           0        6.796053   -0.904877   -0.872015
     24          1           0        4.608710   -2.039993   -0.815588
     25          1           0        1.101540    1.130447   -0.997814
     26          1           0       -1.302200    1.569289   -1.039319
     27          1           0       -3.876409   -2.010720   -0.342774
     28          1           0       -6.290281   -1.562500   -0.371603
     29          1           0       -7.135412    0.752042   -0.094939
     30          1           0       -5.525274    2.609665    0.228667
     31          1           0       -3.112324    2.159286    0.292405
     32          1           0       -2.024027   -2.107036    1.049751
     33          1           0        0.378871   -2.562909    1.092125
 ---------------------------------------------------------------------

 SCF Done:  E(UB3LYP) =  -732.650948670     A.U. after    1 cycles

 The electronic state is 3-A.
 Alpha  occ. eigenvalues --  -10.20117 -10.19767 -10.19681 -10.19314 -10.19047
 Alpha  occ. eigenvalues --  -10.18544 -10.18523 -10.18350 -10.18329 -10.18221
 Alpha  occ. eigenvalues --  -10.18057 -10.18029 -10.17979 -10.17950 -10.17937
 Alpha  occ. eigenvalues --  -10.17929 -10.17886 -10.17869 -10.17816  -0.88148
 Alpha  occ. eigenvalues --   -0.87040  -0.85749  -0.80794  -0.77532  -0.76038
 Alpha  occ. eigenvalues --   -0.75706  -0.75127  -0.73837  -0.67976  -0.63230
 Alpha  occ. eigenvalues --   -0.62764  -0.61347  -0.59900  -0.59419  -0.56838
 Alpha  occ. eigenvalues --   -0.53905  -0.52450  -0.49332  -0.48117  -0.47921
 Alpha  occ. eigenvalues --   -0.46426  -0.44884  -0.44790  -0.44767  -0.43353
 Alpha  occ. eigenvalues --   -0.43096  -0.43057  -0.42506  -0.39490  -0.39026
 Alpha  occ. eigenvalues --   -0.38794  -0.37327  -0.36643  -0.36224  -0.35375
 Alpha  occ. eigenvalues --   -0.34988  -0.34310  -0.31637  -0.29059  -0.27138
 Alpha  occ. eigenvalues --   -0.26989  -0.26320  -0.25601  -0.21841  -0.17761
 Alpha virt. eigenvalues --   -0.03878  -0.02380  -0.01991  -0.01613  -0.00453
 Alpha virt. eigenvalues --    0.03306   0.04548   0.04783   0.05861   0.06325
 Alpha virt. eigenvalues --    0.07414   0.08289   0.08524   0.08994   0.10391

  Beta  occ. eigenvalues --  -10.19971 -10.19895 -10.19103 -10.18987 -10.18205
  Beta  occ. eigenvalues --  -10.18196 -10.18136 -10.18132 -10.18127 -10.18102
  Beta  occ. eigenvalues --  -10.18001 -10.17986 -10.17943 -10.17939 -10.17930
  Beta  occ. eigenvalues --  -10.17903 -10.17842 -10.17832 -10.17773  -0.87715
  Beta  occ. eigenvalues --   -0.86514  -0.85500  -0.79669  -0.76907  -0.75787
  Beta  occ. eigenvalues --   -0.75364  -0.74967  -0.73510  -0.66166  -0.62820
  Beta  occ. eigenvalues --   -0.62454  -0.60999  -0.59682  -0.59070  -0.56089
  Beta  occ. eigenvalues --   -0.53748  -0.52079  -0.48880  -0.47778  -0.47485
  Beta  occ. eigenvalues --   -0.45948  -0.44705  -0.44584  -0.44481  -0.43263
  Beta  occ. eigenvalues --   -0.42955  -0.42713  -0.42426  -0.38783  -0.38545
  Beta  occ. eigenvalues --   -0.37966  -0.36857  -0.36297  -0.35854  -0.35137
  Beta  occ. eigenvalues --   -0.34795  -0.34086  -0.29884  -0.27425  -0.26374
  Beta  occ. eigenvalues --   -0.26198  -0.26158  -0.24255
  Beta virt. eigenvalues --   -0.09430  -0.08662  -0.02693  -0.01950  -0.01476
  Beta virt. eigenvalues --   -0.01127   0.00702   0.04606   0.04846   0.05173
  Beta virt. eigenvalues --    0.05958   0.06419   0.07472   0.08390   0.08649

 Mulliken charges and spin densities:
               1          2
     1  C   -0.036527   1.463532
     2  C    0.141745  -0.181421
     3  C   -0.234319   0.219056
     4  C   -0.088720  -0.090047
     5  C   -0.111764   0.211113
     6  C   -0.109106  -0.094712
     7  C   -0.171399   0.206616
     8  C    0.154564  -0.202993
     9  C   -0.229237   0.219421
    10  C   -0.162193  -0.091250
    11  C    0.158579   0.207745
    12  C    0.140546  -0.038598
    13  C   -0.192386   0.036482
    14  C   -0.113254  -0.017467
    15  C   -0.107162   0.037839
    16  C   -0.112257  -0.017564
    17  C   -0.195017   0.036314
    18  C   -0.184013  -0.097213
    19  C   -0.169281   0.209479
    20  H    0.135117  -0.009583
    21  H    0.110175   0.007011
    22  H    0.112330  -0.011067
    23  H    0.109376   0.004576
    24  H    0.111961  -0.003115
    25  H    0.133234  -0.009696
    26  H    0.118404   0.007279
    27  H    0.118843  -0.001714
    28  H    0.108601   0.000856
    29  H    0.109665  -0.001976
    30  H    0.108378   0.000855
    31  H    0.117976  -0.001631
    32  H    0.117529   0.004710
    33  H    0.109612  -0.002838
 Sum of Mulliken charges =  -0.00000   2.00000

 Dipole moment (field-independent basis, Debye):
    X=             -0.1200    Y=              0.6528    Z=             -0.0479  Tot=              0.6654
 Quadrupole moment (field-independent basis, Debye-Ang):
   XX=            -96.4009   YY=           -101.9891   ZZ=           -116.9761
   XY=              2.1931   XZ=             -1.5722   YZ=              0.5199

  Exact polarizability:     468.798       3.962     204.139      -7.581       1.925     121.829
 Approx polarizability:     602.880       4.349     371.242     -15.255       1.619     207.927

 Summary of Natural Population Analysis:

                                       Natural Population
                Natural  -----------------------------------------------
    Atom  No    Charge         Core      Valence    Rydberg      Total
 -----------------------------------------------------------------------
      C    1    0.80281      0.99919     1.19192    0.00609     2.19719
      C    2   -0.16798      0.99950     2.15899    0.00949     3.16798
      C    3    0.01743      0.99954     1.97389    0.00915     2.98257
      C    4   -0.14475      0.99959     2.13581    0.00935     3.14475
      C    5   -0.00131      0.99960     1.99251    0.00921     3.00131
      C    6   -0.14564      0.99959     2.13646    0.00958     3.14564
      C    7    0.01471      0.99955     1.97666    0.00908     2.98529
      C    8   -0.17244      0.99950     2.16378    0.00916     3.17244
      C    9    0.02198      0.99954     1.97000    0.00848     2.97802
      C   10   -0.13997      0.99955     2.13171    0.00872     3.13997
      C   11    0.07889      0.99953     1.91193    0.00966     2.92111
      C   12   -0.03935      0.99953     2.03014    0.00969     3.03935
      C   13   -0.07843      0.99955     2.06965    0.00923     3.07843
      C   14   -0.10733      0.99960     2.09837    0.00936     3.10733
      C   15   -0.08613      0.99959     2.07696    0.00957     3.08613
      C   16   -0.10745      0.99960     2.09849    0.00936     3.10745
      C   17   -0.07853      0.99955     2.06980    0.00918     3.07853
      C   18   -0.14063      0.99955     2.13202    0.00906     3.14063
      C   19    0.01804      0.99955     1.97350    0.00891     2.98196
      H   20    0.10143      0.00000     0.39771    0.00086     0.39857
      H   21    0.10743      0.00000     0.39194    0.00062     0.39257
      H   22    0.10084      0.00000     0.39857    0.00059     0.39916
      H   23    0.10642      0.00000     0.39299    0.00059     0.39358
      H   24    0.10280      0.00000     0.39655    0.00065     0.39720
      H   25    0.10177      0.00000     0.39742    0.00081     0.39823
      H   26    0.10720      0.00000     0.39201    0.00079     0.39280
      H   27    0.10268      0.00000     0.39640    0.00092     0.39732
      H   28    0.10457      0.00000     0.39483    0.00060     0.39543
      H   29    0.10370      0.00000     0.39570    0.00060     0.39630
      H   30    0.10452      0.00000     0.39488    0.00060     0.39548
      H   31    0.10256      0.00000     0.39660    0.00084     0.39744
      H   32    0.10704      0.00000     0.39229    0.00068     0.39296
      H   33    0.10314      0.00000     0.39626    0.00060     0.39686
 =======================================================================
   * Total *    1.00000     18.99119    43.82672    0.18208    63.00000

                      1                      2                      3
                      A                      A                      A
 Frequencies --     27.9587                37.7679                41.8629
 Red. masses --      5.0523                 3.7576                 5.1832
 Frc consts  --      0.0023                 0.0032                 0.0054
 IR Inten    --      0.3065                 0.0610                 0.1786

                      4                      5                      6
                      A                      A                      A
 Frequencies --     77.1776                82.1247               114.1342
 Red. masses --      3.7194                 5.3180                 4.7874
 Frc consts  --      0.0131                 0.0211                 0.0367
 IR Inten    --      0.1858                 0.8254                 0.0695

                      7                      8                      9
                      A                      A                      A
 Frequencies --    177.1628               209.0978               229.4419
 Red. masses --      4.9269                 5.4758                 5.5440
 Frc consts  --      0.0911                 0.1411                 0.1720
 IR Inten    --      0.7541                 1.0700                 0.8802

                     10                     11                     12
                      A                      A                      A
 Frequencies --    289.4926               374.9809               386.6833
 Red. masses --      5.0470                 5.9628                 4.4453
 Frc consts  --      0.2492                 0.4940                 0.3916
 IR Inten    --      2.2011                 7.5127                 6.7594

                     13                     14                     15
                      A                      A                      A
 Frequencies --    406.9929               412.3367               413.2050
 Red. masses --      3.1865                 3.0510                 4.5883
 Frc consts  --      0.3110                 0.3056                 0.4616
 IR Inten    --      0.3737                 0.3909                 1.9462

                     16                     17                     18
                      A                      A                      A
 Frequencies --    419.7716               494.6052               521.1226
 Red. masses --      3.1003                 3.3924                 3.5876
 Frc consts  --      0.3219                 0.4890                 0.5740
 IR Inten    --      0.2803                 9.4098                30.6002

                     19                     20                     21
                      A                      A                      A
 Frequencies --    556.1228               590.6608               600.1336
 Red. masses --      2.6593                 6.4322                 6.4910
 Frc consts  --      0.4846                 1.3222                 1.3774
 IR Inten    --     11.8226                 2.3839                 2.2494

                     22                     23                     24
                      A                      A                      A
 Frequencies --    629.3035               633.6692               653.3320
 Red. masses --      6.5878                 6.5277                 6.8789
 Frc consts  --      1.5371                 1.5443                 1.7300
 IR Inten    --      1.5599                 0.4709                 0.8641

                     25                     26                     27
                      A                      A                      A
 Frequencies --    691.3312               710.6627               716.7480
 Red. masses --      1.8079                 1.7643                 5.2226
 Frc consts  --      0.5091                 0.5250                 1.5808
 IR Inten    --     36.0195                36.9520                12.0540

                     28                     29                     30
                      A                      A                      A
 Frequencies --    741.4273               762.7847               780.9970
 Red. masses --      3.2352                 2.0337                 2.2143
 Frc consts  --      1.0478                 0.6972                 0.7958
 IR Inten    --      7.6567                37.3289                48.0588

                     31                     32                     33
                      A                      A                      A
 Frequencies --    786.5428               830.0368               838.1085
 Red. masses --      4.7258                 1.2514                 1.2544
 Frc consts  --      1.7226                 0.5080                 0.5191
 IR Inten    --      0.8994                 1.5615                 0.4992

                     34                     35                     36
                      A                      A                      A
 Frequencies --    851.3525               854.8218               906.9346
 Red. masses --      1.6701                 1.2513                 1.4757
 Frc consts  --      0.7132                 0.5387                 0.7152
 IR Inten    --     27.6398                 0.0793                 2.2260

                     37                     38                     39
                      A                      A                      A
 Frequencies --    909.6097               930.1211               960.3451
 Red. masses --      5.1580                 1.4674                 1.3422
 Frc consts  --      2.5144                 0.7480                 0.7293
 IR Inten    --      3.4975                 1.3947                 0.2945

                     40                     41                     42
                      A                      A                      A
 Frequencies --    966.7186               968.0160               972.2720
 Red. masses --      1.3414                 1.3521                 1.2867
 Frc consts  --      0.7386                 0.7465                 0.7166
 IR Inten    --      0.8168                 0.0011                 0.0822

                     43                     44                     45
                      A                      A                      A
 Frequencies --    974.7272               979.9552              1000.0381
 Red. masses --      1.2839                 1.2606                 5.9902
 Frc consts  --      0.7187                 0.7133                 3.5296
 IR Inten    --      0.1239                 0.1278                 0.7270

                     46                     47                     48
                      A                      A                      A
 Frequencies --   1009.8681              1018.1866              1037.5996
 Red. masses --      4.8990                 5.3573                 3.3276
 Frc consts  --      2.9437                 3.2723                 2.1107
 IR Inten    --      4.6982                 0.2116                 2.5191

                     49                     50                     51
                      A                      A                      A
 Frequencies --   1041.7868              1064.7750              1104.5535
 Red. masses --      2.2122                 1.9267                 1.6715
 Frc consts  --      1.4146                 1.2870                 1.2015
 IR Inten    --      3.7579                 2.2248                 5.5586

                     52                     53                     54
                      A                      A                      A
 Frequencies --   1111.8307              1148.2692              1170.9367
 Red. masses --      1.6568                 1.5130                 2.5473
 Frc consts  --      1.2067                 1.1754                 2.0578
 IR Inten    --      4.5170                 3.9794                 0.6317

                     55                     56                     57
                      A                      A                      A
 Frequencies --   1187.9114              1194.0884              1200.7777
 Red. masses --      1.1487                 1.1280                 1.2044
 Frc consts  --      0.9550                 0.9476                 1.0232
 IR Inten    --      0.0799                 0.0377                 1.3076

                     58                     59                     60
                      A                      A                      A
 Frequencies --   1218.3662              1234.3366              1276.5878
 Red. masses --      1.1668                 1.4839                 4.2214
 Frc consts  --      1.0205                 1.3321                 4.0533
 IR Inten    --      0.7244                 1.0341                 1.7592

                     61                     62                     63
                      A                      A                      A
 Frequencies --   1293.7569              1308.9491              1311.5184
 Red. masses --      3.5618                 3.2209                 2.8846
 Frc consts  --      3.5125                 3.2515                 2.9233
 IR Inten    --      2.1422                 1.1644                 0.9532

                     64                     65                     66
                      A                      A                      A
 Frequencies --   1335.5623              1354.1294              1365.7641
 Red. masses --      1.9852                 1.6125                 1.4499
 Frc consts  --      2.0863                 1.7421                 1.5935
 IR Inten    --      0.3412                 0.1989                 0.5262

                     67                     68                     69
                      A                      A                      A
 Frequencies --   1443.7278              1455.1624              1462.6278
 Red. masses --      2.7413                 3.2540                 2.2337
 Frc consts  --      3.3665                 4.0597                 2.8154
 IR Inten    --      4.0005                 0.3611                 3.3962

                     70                     71                     72
                      A                      A                      A
 Frequencies --   1477.7405              1503.0309              1509.7128
 Red. masses --      2.2453                 2.0858                 2.4897
 Frc consts  --      2.8888                 2.7762                 3.3434
 IR Inten    --      2.7941                 5.8750                67.9317

                     73                     74                     75
                      A                      A                      A
 Frequencies --   1535.8010              1539.7925              1575.8634
 Red. masses --      3.0374                 3.0936                 3.9226
 Frc consts  --      4.2210                 4.3215                 5.7394
 IR Inten    --      5.3347                 0.2396                 2.8302

                     76                     77                     78
                      A                      A                      A
 Frequencies --   1606.2425              1611.8372              1616.2123
 Red. masses --      4.8177                 4.8896                 5.2015
 Frc consts  --      7.3234                 7.4845                 8.0053
 IR Inten    --      6.9317                 1.4414                 2.4561

                     79                     80                     81
                      A                      A                      A
 Frequencies --   1642.5939              3163.0931              3164.0058
 Red. masses --      5.3295                 1.0851                 1.0854
 Frc consts  --      8.4721                 6.3967                 6.4018
 IR Inten    --     17.3691                 9.3708                 4.9690

                     82                     83                     84
                      A                      A                      A
 Frequencies --   3168.2289              3170.5237              3171.0443
 Red. masses --      1.0872                 1.0874                 1.0875
 Frc consts  --      6.4296                 6.4405                 6.4427
 IR Inten    --      2.0231                 3.8143                14.3958

                     85                     86                     87
                      A                      A                      A
 Frequencies --   3173.1865              3180.9155              3184.8515
 Red. masses --      1.0871                 1.0903                 1.0908
 Frc consts  --      6.4492                 6.5000                 6.5189
 IR Inten    --      1.5408                 5.9210                 6.5945

                     88                     89                     90
                      A                      A                      A
 Frequencies --   3186.1784              3189.3000              3190.8972
 Red. masses --      1.0934                 1.0934                 1.0936
 Frc consts  --      6.5397                 6.5528                 6.5602
 IR Inten    --     19.0978                 9.9948                25.8083

                     91                     92                     93
                      A                      A                      A
 Frequencies --   3192.0951              3194.9050              3196.3389
 Red. masses --      1.0941                 1.0973                 1.0972
 Frc consts  --      6.5686                 6.5990                 6.6046
 IR Inten    --      1.7545                22.8996                13.5851

 - Thermochemistry -
 -------------------
 Temperature   298.150 Kelvin.  Pressure   1.00000 Atm.
 Atom     1 has atomic number  6 and mass  12.00000

 Molecular mass:   242.10955 amu.
 Principal axes and moments of inertia in atomic units:
                           1         2         3
     Eigenvalues --  1116.21146********************
           X            1.00000   0.00150  -0.00067
           Y           -0.00150   1.00000   0.00226
           Z            0.00068  -0.00226   1.00000
 This molecule is an asymmetric top.
 Rotational symmetry number  1.
 Warning -- assumption of classical behavior for rotation
           may cause significant error
 Rotational temperatures (Kelvin)      0.07760     0.00624     0.00588
 Rotational constants (GHZ):           1.61685     0.13007     0.12251
 Zero-point vibrational energy     693882.9 (Joules/Mol)
                                  165.84198 (Kcal/Mol)
 Warning -- explicit consideration of  21 degrees of freedom as
           vibrations may cause significant error
 Vibrational temperatures:     40.23    54.34    60.23   111.04   118.16
          (Kelvin)            164.21   254.90   300.85   330.12   416.52
                              539.51   556.35   585.57   593.26   594.51
                              603.96   711.63   749.78   800.14   849.83
                              863.46   905.43   911.71   940.00   994.67
                             1022.49  1031.24  1066.75  1097.48  1123.68
                             1131.66  1194.24  1205.85  1224.91  1229.90
                             1304.88  1308.73  1338.24  1381.72  1390.89
                             1392.76  1398.88  1402.42  1409.94  1438.83
                             1452.97  1464.94  1492.87  1498.90  1531.97
                             1589.21  1599.68  1652.10  1684.72  1709.14
                             1718.03  1727.65  1752.96  1775.94  1836.73
                             1861.43  1883.29  1886.98  1921.58  1948.29
                             1965.03  2077.20  2093.65  2104.40  2126.14
                             2162.53  2172.14  2209.68  2215.42  2267.32
                             2311.02  2319.07  2325.37  2363.33  4550.99
                             4552.30  4558.37  4561.68  4562.43  4565.51
                             4576.63  4582.29  4584.20  4588.69  4590.99
                             4592.71  4596.76  4598.82

 Zero-point correction=                           0.264286 (Hartree/Particle)
 Thermal correction to Energy=                    0.279124
 Thermal correction to Enthalpy=                  0.280069
 Thermal correction to Gibbs Free Energy=         0.219238
 Sum of electronic and zero-point Energies=           -732.386663
 Sum of electronic and thermal Energies=              -732.371824
 Sum of electronic and thermal Enthalpies=            -732.370880
 Sum of electronic and thermal Free Energies=         -732.431711

                     E (Thermal)             CV                S
                      KCal/Mol        Cal/Mol-Kelvin    Cal/Mol-Kelvin
 Total                  175.153             59.727            128.029
 Electronic               0.000              0.000              2.183
 Translational            0.889              2.981             42.354
 Rotational               0.889              2.981             33.789
 Vibrational            173.376             53.766             49.704
 Vibration     1          0.593              1.984              5.969
 Vibration     2          0.594              1.982              5.373
 Vibration     3          0.594              1.980              5.169
 Vibration     4          0.599              1.964              3.961
 Vibration     5          0.600              1.961              3.839
 Vibration     6          0.607              1.938              3.197
 Vibration     7          0.628              1.870              2.358
 Vibration     8          0.642              1.827              2.052
 Vibration     9          0.652              1.796              1.883
 Vibration    10          0.686              1.693              1.477
 Vibration    11          0.746              1.523              1.059
 Vibration    12          0.755              1.499              1.013
 Vibration    13          0.772              1.455              0.937
 Vibration    14          0.776              1.443              0.918
 Vibration    15          0.777              1.442              0.915
 Vibration    16          0.782              1.427              0.893
 Vibration    17          0.850              1.262              0.672
 Vibration    18          0.876              1.203              0.607
 Vibration    19          0.912              1.126              0.532
 Vibration    20          0.948              1.052              0.466
 Vibration    21          0.958              1.032              0.449

                           ! Non-Optimized Parameters !
 Normal termination of Gaussian 16 at Fri Apr 11 19:33:42 2025.
