 Gaussian 16, Revision A.03,
 Gaussian 16:  ES64L-G16RevA.03 25-Dec-2016

 ----------------------
 #p hf/sto-3g pop=(cm5)
 ----------------------

 ---
 dvb
 ---
 Symbolic Z-matrix:
 Charge =  0 Multiplicity = 1

                         Standard orientation:
 ---------------------------------------------------------------------
 Center     Atomic      Atomic             Coordinates (Angstroms)
 Number     Number       Type             X           Y           Z
 ---------------------------------------------------------------------
      1          6           0        1.210613    0.725460    0.000000
      2          6           0       -0.023742    1.377548    0.000000
      3          6           0       -1.210613    0.669803    0.000000
      4          6           0       -1.210613   -0.725460    0.000000
      5          6           0        0.023742   -1.377548    0.000000
      6          6           0        1.210613   -0.669803    0.000000
      7          1           0       -0.050055    2.459775    0.000000
      8          1           0       -2.146363    1.211527    0.000000
      9          1           0        0.050055   -2.459775    0.000000
     10          1           0        2.146363   -1.211527    0.000000
     11          6           0       -2.465621   -1.539809    0.000000
     12          6           0       -3.698529   -1.086641    0.000000
     13          1           0       -2.299843   -2.611435    0.000000
     14          1           0       -4.544112   -1.760246    0.000000
     15          1           0       -3.940315   -0.033715    0.000000
     16          6           0        2.465621    1.539809    0.000000
     17          6           0        3.698529    1.086641    0.000000
     18          1           0        2.299843    2.611435    0.000000
     19          1           0        4.544112    1.760246    0.000000
     20          1           0        3.940315    0.033715    0.000000
 ---------------------------------------------------------------------

 SCF Done:  E(RHF) =  -379.777955378     A.U. after   11 cycles

 The electronic state is 1-AG.
 Alpha  occ. eigenvalues --  -11.04092 -11.04085 -11.03237 -11.03237 -11.02892
 Alpha  occ. eigenvalues --  -11.02879 -11.02834 -11.02830 -11.01795 -11.01795
 Alpha  occ. eigenvalues --   -1.10667  -1.03176  -0.98848  -0.96096  -0.92267
 Alpha  occ. eigenvalues --   -0.80642  -0.77126  -0.73300  -0.70726  -0.63919
 Alpha  occ. eigenvalues --   -0.61512  -0.57762  -0.56384  -0.56290  -0.53252
 Alpha  occ. eigenvalues --   -0.50741  -0.49814  -0.47728  -0.44868  -0.42593
 Alpha  occ. eigenvalues --   -0.41821  -0.38686  -0.32693  -0.28560  -0.23322
 Alpha virt. eigenvalues --    0.20696   0.27320   0.31862   0.40606   0.53753
 Alpha virt. eigenvalues --    0.56856   0.58281   0.63237   0.63488   0.68248
 Alpha virt. eigenvalues --    0.68424   0.69308   0.72191   0.73261   0.76753

 Mulliken charges:
               1
     1  C    0.002791
     2  C   -0.062530
     3  C   -0.063735
     4  C    0.002791
     5  C   -0.062530
     6  C   -0.063735
     7  H    0.061165
     8  H    0.063379
     9  H    0.061165
    10  H    0.063379
    11  C   -0.057056
    12  C   -0.131620
    13  H    0.060803
    14  H    0.064487
    15  H    0.062316
    16  C   -0.057056
    17  C   -0.131620
    18  H    0.060803
    19  H    0.064487
    20  H    0.062316
 Sum of Mulliken charges =  -0.00000

 Dipole moment (field-independent basis, Debye):
    X=             -0.0000    Y=             -0.0000    Z=              0.0000  Tot=              0.0000
 Quadrupole moment (field-independent basis, Debye-Ang):
   XX=            -52.6449   YY=            -51.8074   ZZ=            -58.4303
   XY=             -0.2218   XZ=              0.0000   YZ=              0.0000

 Normal termination of Gaussian 16 at Thu Nov 28 12:50:46 2024.
