 Gaussian 16, Revision B.01,
 Gaussian 16:  ES64L-G16RevB.01 20-Dec-2017

 -------------------------------------------------------
 # opt freq m06 def2svp scrf=(smd,solvent=chlorobenzene)
 -------------------------------------------------------

 ------------
 Gaussian job
 ------------
 Symbolic Z-matrix:
 Charge =  0 Multiplicity = 1

 SCF Done:  E(RM06) =  -5228.49847660     A.U. after   21 cycles
 SCF Done:  E(RM06) =  -5228.50467711     A.U. after   14 cycles
 SCF Done:  E(RM06) =  -5228.50695249     A.U. after   14 cycles
 SCF Done:  E(RM06) =  -5228.50719527     A.U. after   12 cycles
 SCF Done:  E(RM06) =  -5228.50721715     A.U. after    8 cycles
 SCF Done:  E(RM06) =  -5228.50721922     A.U. after    8 cycles
 SCF Done:  E(RM06) =  -5228.50721957     A.U. after    6 cycles
 Optimization completed.
    -- Stationary point found.
 Normal termination of Gaussian 16 at Fri Feb  2 00:29:03 2024.

 -----------------------------------------------------------------
 #N Geom=AllCheck Guess=TCheck SCRF=Check GenChk RM06/def2SVP Freq
 -----------------------------------------------------------------

 Structure from the checkpoint file:  "TS_5coord_L2_subst_opt.chk"
 ------------
 Gaussian job
 ------------
 Charge =  0 Multiplicity = 1

                         Standard orientation:
 ---------------------------------------------------------------------
 Center     Atomic      Atomic             Coordinates (Angstroms)
 Number     Number       Type             X           Y           Z
 ---------------------------------------------------------------------
      1         28           0        1.760372   -1.627331   -0.205919
      2         15           0        2.094404    0.669996    0.121891
      3          8           0        2.142001    1.973198   -2.492678
      4          8           0        4.645691    1.554690    1.400441
      5          8           0        2.314897    3.073549    2.065270
      6          8           0        1.504958   -1.562865    1.866014
      7          8           0       -0.187457   -1.086678   -0.306439
      8          6           0        4.434866    2.263939    0.273576
      9          6           0       -0.517323    0.153693   -0.398821
     10          6           0       -1.890113    0.526930   -0.578224
     11          6           0        3.275230    1.937380   -0.452572
     12          6           0        1.966957    0.760914    1.968073
     13          6           0        0.412188    1.229960   -0.297262
     14          6           0        0.721455   -2.638189    2.364097
     15          1           0        1.279879   -3.217249    3.120077
     16          1           0        0.488021   -3.288075    1.510842
     17          1           0       -0.222076   -2.262597    2.787052
     18          6           0        5.520051    2.050959    2.375708
     19          1           0        5.377027    1.439490    3.278996
     20          1           0        5.299484    3.106213    2.622294
     21          1           0        6.579132    1.974907    2.068290
     22          6           0        5.312708    3.255341   -0.177619
     23          1           0        6.194843    3.527332    0.406674
     24          6           0       -2.247436    1.859133   -0.715852
     25          1           0       -3.306712    2.098051   -0.865710
     26          6           0       -1.317477    2.916907   -0.650446
     27          6           0        1.635951    2.691990   -3.584668
     28          1           0        0.734942    2.160727   -3.925113
     29          1           0        2.353175    2.742013   -4.424381
     30          1           0        1.350126    3.720906   -3.295966
     31          6           0        2.368959    4.297539    2.745980
     32          1           0        1.393013    4.565265    3.191208
     33          1           0        2.640562    5.061663    2.003467
     34          1           0        3.132948    4.298940    3.544849
     35          6           0        2.045945    1.940439    2.737912
     36          6           0        1.842678    1.912031    4.122475
     37          1           0        1.911086    2.825317    4.717130
     38          6           0        1.529464    0.703769    4.741008
     39          1           0        1.367561    0.680665    5.822871
     40          6           0        0.010938    2.564653   -0.417798
     41          1           0        0.778650    3.340138   -0.322156
     42          6           0        5.069184    3.873721   -1.402207
     43          1           0        5.753294    4.650293   -1.757495
     44          6           0        3.992843    3.493610   -2.197464
     45          1           0        3.844323    3.947113   -3.180164
     46          6           0        3.128649    2.492151   -1.738165
     47          6           0        1.622421   -0.426707    2.625903
     48          6           0        1.408001   -0.469293    4.008751
     49          1           0        1.150687   -1.405048    4.508474
     50          6           0        2.552310   -4.416940   -0.358150
     51          6           0        3.269806   -5.558943   -0.022079
     52          6           0        4.399587   -5.428701    0.779752
     53          6           0        4.767702   -4.158881    1.217790
     54          6           0        3.990688   -3.070554    0.842534
     55          7           0        2.902350   -3.195788    0.067961
     56          1           0        4.987735   -6.306696    1.060771
     57          1           0        2.939275   -6.533684   -0.387860
     58          1           0        5.647804   -4.005877    1.846419
     59          1           0        4.238089   -2.054162    1.172907
     60          6           0        1.920488   -1.667166   -2.105182
     61          1           0        1.336810   -2.551533   -2.441367
     62          1           0        1.367182   -0.779417   -2.469549
     63         14           0        3.608113   -1.706695   -2.910621
     64          6           0        4.294577   -3.463748   -3.057502
     65          1           0        3.540029   -4.180255   -3.428582
     66          1           0        5.138933   -3.476412   -3.770842
     67          1           0        4.679597   -3.846224   -2.096002
     68          6           0        3.440646   -1.023639   -4.666239
     69          1           0        2.715259   -1.605454   -5.262130
     70          1           0        3.080074    0.020851   -4.636036
     71          1           0        4.404767   -1.032040   -5.206135
     72          6           0        4.958276   -0.691480   -2.069211
     73          1           0        4.777404    0.394185   -2.152532
     74          1           0        5.071028   -0.932208   -0.997300
     75          1           0        5.926015   -0.901494   -2.561080
     76          6           0       -1.802032    4.360741   -0.777731
     77          6           0       -0.656677    5.360796   -0.653729
     78          1           0       -0.150284    5.288869    0.324455
     79          1           0        0.106145    5.216379   -1.438848
     80          1           0       -1.040770    6.390947   -0.752019
     81          6           0       -2.815098    4.661537    0.332361
     82          1           0       -3.191403    5.697867    0.254868
     83          1           0       -3.688364    3.987458    0.290069
     84          1           0       -2.351512    4.543062    1.328144
     85          6           0       -2.471315    4.567027   -2.139322
     86          1           0       -3.337794    3.898835   -2.277535
     87          1           0       -2.832323    5.605782   -2.249029
     88          1           0       -1.761963    4.365432   -2.961453
     89         15           0       -3.045076   -0.889465   -0.721483
     90          6           0       -3.373210   -1.474900    1.018259
     91          6           0       -2.689140   -1.135698    2.193546
     92          6           0       -4.450850   -2.380152    1.141763
     93          6           0       -3.084589   -1.644465    3.439477
     94          6           0       -4.875420   -2.862017    2.382117
     95          6           0       -4.180323   -2.490629    3.532674
     96          1           0       -2.510760   -1.354876    4.326900
     97          1           0       -5.728467   -3.542148    2.449089
     98          1           0       -4.494553   -2.879357    4.506149
     99          6           0       -4.675050   -0.042680   -1.033169
    100          6           0       -5.289688   -0.264852   -2.283348
    101          6           0       -5.397477    0.692952   -0.072591
    102          6           0       -6.586626    0.197281   -2.552404
    103          6           0       -6.701246    1.145088   -0.326450
    104          6           0       -7.277785    0.889791   -1.564810
    105          1           0       -7.057268    0.019195   -3.521181
    106          1           0       -7.254292    1.708436    0.428237
    107          1           0       -8.291266    1.248539   -1.770201
    108          8           0       -4.568834   -0.949903   -3.191741
    109          8           0       -4.775721    0.952397    1.096711
    110          8           0       -5.054464   -2.733965   -0.016829
    111          8           0       -1.603082   -0.316262    2.155741
    112          6           0       -5.132231   -1.262649   -4.434338
    113          1           0       -5.384450   -0.358608   -5.018514
    114          1           0       -4.379012   -1.836175   -4.992089
    115          1           0       -6.041253   -1.884424   -4.334465
    116          6           0       -5.531345    1.329632    2.214233
    117          1           0       -5.963520    2.342218    2.111567
    118          1           0       -6.349858    0.612673    2.415162
    119          1           0       -4.849657    1.336494    3.077784
    120          6           0       -6.403694   -3.106107   -0.004525
    121          1           0       -6.743816   -3.128170   -1.050843
    122          1           0       -6.565472   -4.110502    0.428787
    123          1           0       -7.020841   -2.375051    0.552496
    124          6           0       -1.761802    0.978297    2.679569
    125          1           0       -2.010332    0.967329    3.759374
    126          1           0       -0.800917    1.502344    2.550422
    127          1           0       -2.543160    1.536645    2.131773
    128          6           0        1.276741   -4.609560   -1.116445
    129          1           0        0.563140   -3.796229   -0.919905
    130          1           0        1.454446   -4.640968   -2.204711
    131          1           0        0.817180   -5.570876   -0.841163
 ---------------------------------------------------------------------

 SCF Done:  E(RM06) =  -5228.50721957     A.U. after    1 cycles

 The electronic state is 1-A.
 Alpha  occ. eigenvalues -- -300.07642 -77.21568 -77.19166 -66.21282 -35.97188
 Alpha  occ. eigenvalues --  -31.33595 -31.31456 -31.29660 -19.26634 -19.24433
 Alpha  occ. eigenvalues --  -19.24109 -19.23709 -19.23667 -19.23602 -19.23301
 Alpha  occ. eigenvalues --  -19.21341 -19.14381 -14.43020 -10.31932 -10.31673
 Alpha  occ. eigenvalues --  -10.31123 -10.31066 -10.30910 -10.30905 -10.30462
 Alpha  occ. eigenvalues --  -10.30409 -10.29832 -10.29760 -10.29624 -10.29601
 Alpha  occ. eigenvalues --  -10.29574 -10.29222 -10.29118 -10.29018 -10.28992
 Alpha  occ. eigenvalues --  -10.27775 -10.27587 -10.27172 -10.26430 -10.26205
 Alpha  occ. eigenvalues --  -10.25585 -10.25092 -10.25074 -10.24744 -10.24719
 Alpha  occ. eigenvalues --  -10.24433 -10.24410 -10.24344 -10.24214 -10.23902
 Alpha  occ. eigenvalues --  -10.23887 -10.23849 -10.23845 -10.23709 -10.23646
 Alpha  occ. eigenvalues --  -10.23606 -10.23579 -10.23418 -10.22477 -10.22440
 Alpha  occ. eigenvalues --  -10.22420 -10.22302 -10.22254 -10.21562 -10.21155
 Alpha  occ. eigenvalues --  -10.21058 -10.20528 -10.20219 -10.20209 -10.18330
 Alpha  occ. eigenvalues --   -6.66067  -6.63776  -5.33102  -4.78304  -4.78206
 Alpha  occ. eigenvalues --   -4.77790  -4.76014  -4.75941  -4.75400  -4.03443
 Alpha  occ. eigenvalues --   -3.65288  -3.65275  -3.65190  -2.61345  -2.59085
 Alpha  occ. eigenvalues --   -2.56591  -1.09675  -1.09056  -1.08401  -1.08203
 Alpha  occ. eigenvalues --   -1.08188  -1.08038  -1.07793  -1.05858  -0.97784
 Alpha  occ. eigenvalues --   -0.97461  -0.86024  -0.85424  -0.85083  -0.84747
 Alpha  occ. eigenvalues --   -0.83454  -0.82038  -0.79850  -0.79445  -0.77931
 Alpha  occ. eigenvalues --   -0.76924  -0.76352  -0.76106  -0.75622  -0.75479
 Alpha  occ. eigenvalues --   -0.75239  -0.74517  -0.72864  -0.70821  -0.70685
 Alpha  occ. eigenvalues --   -0.70164  -0.70005  -0.69971  -0.69727  -0.69004
 Alpha  occ. eigenvalues --   -0.68838  -0.68454  -0.68284  -0.67544  -0.67316
 Alpha  occ. eigenvalues --   -0.67078  -0.65719  -0.65498  -0.65024  -0.64807
 Alpha  occ. eigenvalues --   -0.63659  -0.62708  -0.61802  -0.61583  -0.60704
 Alpha  occ. eigenvalues --   -0.59745  -0.58940  -0.58417  -0.58150  -0.58001
 Alpha  occ. eigenvalues --   -0.57892  -0.57270  -0.55543  -0.55052  -0.54341
 Alpha  occ. eigenvalues --   -0.53679  -0.53477  -0.52655  -0.52497  -0.51712
 Alpha  occ. eigenvalues --   -0.51398  -0.51182  -0.50827  -0.50305  -0.50098
 Alpha  occ. eigenvalues --   -0.49574  -0.49437  -0.49284  -0.48966  -0.48488
 Alpha  occ. eigenvalues --   -0.48428  -0.48222  -0.47999  -0.47836  -0.47457
 Alpha  occ. eigenvalues --   -0.47395  -0.47156  -0.46973  -0.46860  -0.46815
 Alpha  occ. eigenvalues --   -0.46393  -0.46357  -0.46257  -0.45628  -0.45388
 Alpha  occ. eigenvalues --   -0.44950  -0.44483  -0.44221  -0.44188  -0.43832
 Alpha  occ. eigenvalues --   -0.43390  -0.43331  -0.43062  -0.42030  -0.41818
 Alpha  occ. eigenvalues --   -0.41612  -0.41473  -0.41302  -0.40904  -0.40742
 Alpha  occ. eigenvalues --   -0.40629  -0.40564  -0.40344  -0.40101  -0.39845
 Alpha  occ. eigenvalues --   -0.39757  -0.39544  -0.39124  -0.39012  -0.38803
 Alpha  occ. eigenvalues --   -0.38798  -0.38453  -0.38330  -0.38139  -0.38037
 Alpha  occ. eigenvalues --   -0.37901  -0.37839  -0.37701  -0.37641  -0.37606
 Alpha  occ. eigenvalues --   -0.37422  -0.37289  -0.37272  -0.37043  -0.36649
 Alpha  occ. eigenvalues --   -0.36492  -0.36231  -0.35821  -0.35559  -0.35482
 Alpha  occ. eigenvalues --   -0.35460  -0.35177  -0.34968  -0.34486  -0.34053
 Alpha  occ. eigenvalues --   -0.33755  -0.33689  -0.33474  -0.33371  -0.33148
 Alpha  occ. eigenvalues --   -0.32923  -0.32835  -0.32527  -0.32097  -0.32000
 Alpha  occ. eigenvalues --   -0.31657  -0.31556  -0.31299  -0.31212  -0.30469
 Alpha  occ. eigenvalues --   -0.30318  -0.29639  -0.29326  -0.28368  -0.28257
 Alpha  occ. eigenvalues --   -0.27692  -0.27466  -0.26828  -0.25433  -0.25078
 Alpha  occ. eigenvalues --   -0.24661  -0.23906  -0.23761  -0.23636  -0.23497
 Alpha  occ. eigenvalues --   -0.23133  -0.22980  -0.22761  -0.22711  -0.22201
 Alpha  occ. eigenvalues --   -0.20172  -0.19888  -0.17278  -0.16090
 Alpha virt. eigenvalues --   -0.04017  -0.01979  -0.01891  -0.01325  -0.01023
 Alpha virt. eigenvalues --   -0.00108   0.00641   0.01226   0.01326   0.01502
 Alpha virt. eigenvalues --    0.02186   0.02477   0.04531   0.05044   0.05555

 Mulliken charges:
               1
     1  Ni   0.276477
     2  P    0.353742
     3  O   -0.346983
     4  O   -0.356982
     5  O   -0.344791
     6  O   -0.425773
     7  O   -0.424302
     8  C    0.197924
     9  C    0.264603
    10  C   -0.229514
    11  C   -0.132391
    12  C   -0.077025
    13  C   -0.140869
    14  C    0.144530
    15  H    0.065156
    16  H    0.076136
    17  H    0.067743
    18  C    0.114456
    19  H    0.062154
    20  H    0.044975
    21  H    0.060890
    22  C   -0.115866
    23  H    0.010281
    24  C   -0.076021
    25  H   -0.030677
    26  C    0.074643
    27  C    0.116266
    28  H    0.068849
    29  H    0.059352
    30  H    0.049948
    31  C    0.110859
    32  H    0.057129
    33  H    0.066840
    34  H    0.055631
    35  C    0.152466
    36  C   -0.096159
    37  H    0.010988
    38  C   -0.038828
    39  H    0.035076
    40  C   -0.081346
    41  H   -0.047844
    42  C   -0.028813
    43  H    0.031879
    44  C   -0.103977
    45  H    0.012312
    46  C    0.172839
    47  C    0.218742
    48  C   -0.084433
    49  H    0.013793
    50  C   -0.074385
    51  C   -0.023872
    52  C    0.032457
    53  C   -0.039552
    54  C    0.086279
    55  N   -0.195233
    56  H    0.056094
    57  H    0.042644
    58  H    0.050936
    59  H    0.065346
    60  C   -0.220228
    61  H    0.011688
    62  H    0.028446
    63  Si   0.303295
    64  C   -0.265436
    65  H    0.055776
    66  H    0.058227
    67  H    0.044596
    68  C   -0.273405
    69  H    0.061893
    70  H    0.055501
    71  H    0.055104
    72  C   -0.237136
    73  H    0.048045
    74  H    0.041296
    75  H    0.053438
    76  C   -0.277554
    77  C    0.023521
    78  H    0.029279
    79  H    0.024669
    80  H    0.027694
    81  C    0.001781
    82  H    0.027905
    83  H    0.021492
    84  H    0.027433
    85  C   -0.006888
    86  H    0.037982
    87  H    0.027117
    88  H    0.028130
    89  P    0.435519
    90  C   -0.066050
    91  C    0.090180
    92  C    0.144124
    93  C   -0.038905
    94  C   -0.092717
    95  C   -0.050946
    96  H   -0.000262
    97  H    0.008888
    98  H    0.027469
    99  C   -0.190978
   100  C    0.158078
   101  C    0.181843
   102  C   -0.114170
   103  C   -0.094618
   104  C   -0.034489
   105  H    0.007228
   106  H    0.006092
   107  H    0.031370
   108  O   -0.335706
   109  O   -0.344281
   110  O   -0.356669
   111  O   -0.380939
   112  C    0.117439
   113  H    0.052682
   114  H    0.065967
   115  H    0.047694
   116  C    0.115474
   117  H    0.056175
   118  H    0.046326
   119  H    0.055178
   120  C    0.116597
   121  H    0.060630
   122  H    0.055942
   123  H    0.041574
   124  C    0.169432
   125  H    0.028116
   126  H    0.036327
   127  H    0.035678
   128  C    0.012670
   129  H    0.082138
   130  H    0.079660
   131  H    0.055777
 Sum of Mulliken charges =  -0.00000

 Dipole moment (field-independent basis, Debye):
    X=              2.3402    Y=             -1.6937    Z=              7.3507  Tot=              7.8980
 Quadrupole moment (field-independent basis, Debye-Ang):
   XX=           -355.5560   YY=           -359.9789   ZZ=           -379.0852
   XY=             -0.0402   XZ=             23.7659   YZ=              0.2890

  Exact polarizability: 972.758  54.526 969.662  62.478 -29.013 927.831
 Approx polarizability:1036.577  69.0021089.922  76.482 -17.6501066.537

                      1                      2                      3
                      A                      A                      A
 Frequencies --    187.8780               217.3469               343.0415
 Red. masses --      1.7722                 1.2404                 2.3389
 Frc consts  --      0.0369                 0.0345                 0.1622
 IR Inten    --      1.4026                 1.6884                 2.0829

                      4                      5                      6
                      A                      A                      A
 Frequencies --    749.0786               936.8521               994.4925
 Red. masses --      3.1481                 1.2602                 1.2927
 Frc consts  --      1.0408                 0.6517                 0.7533
 IR Inten    --      3.1599                 6.3642                13.0177

                      7                      8                      9
                      A                      A                      A
 Frequencies --   1349.9808              1390.8403              1405.2555
 Red. masses --      1.2429                 1.0361                 1.0491
 Frc consts  --      1.3346                 1.1809                 1.2206
 IR Inten    --      9.9498                11.6114                29.0202

                     10                     11                     12
                      A                      A                      A
 Frequencies --   3027.9618              3121.6114              3151.9283
 Red. masses --      1.0397                 1.1008                 1.1059
 Frc consts  --      5.6166                 6.3199                 6.4732
 IR Inten    --     12.2083                10.6791                 1.4329

 - Thermochemistry -
 -------------------
 Temperature   298.150 Kelvin.  Pressure   1.00000 Atm.
 Atom     1 has atomic number 28 and mass  57.93535

 Molecular mass:   995.32574 amu.
 Principal axes and moments of inertia in atomic units:
                           1         2         3
     Eigenvalues --  ******************************
           X            0.99997  -0.00645  -0.00426
           Y            0.00651   0.99988   0.01431
           Z            0.00416  -0.01433   0.99989
 This molecule is an asymmetric top.
 Rotational symmetry number  1.
 Warning -- assumption of classical behavior for rotation
           may cause significant error
 Rotational temperatures (Kelvin)      0.00226     0.00141     0.00126
 Rotational constants (GHZ):           0.04715     0.02948     0.02633
 Zero-point vibrational energy     100942.5 (Joules/Mol)
                                   24.12584 (Kcal/Mol)
 Warning -- explicit consideration of   3 degrees of freedom as
           vibrations may cause significant error
 Vibrational temperatures:    270.31   312.71   493.56  1077.76  1347.92
          (Kelvin)           1430.85  1942.32  2001.11  2021.85  4356.56
                             4491.30  4534.92

 Zero-point correction=                           0.038447 (Hartree/Particle)
 Thermal correction to Energy=                    0.042966
 Thermal correction to Enthalpy=                  0.043910
 Thermal correction to Gibbs Free Energy=        -0.000195
 Sum of electronic and zero-point Energies=          -5228.468773
 Sum of electronic and thermal Energies=             -5228.464254
 Sum of electronic and thermal Enthalpies=           -5228.463310
 Sum of electronic and thermal Free Energies=        -5228.507415

                     E (Thermal)             CV                S
                      KCal/Mol        Cal/Mol-Kelvin    Cal/Mol-Kelvin
 Total                   26.961             13.134             92.827
 Electronic               0.000              0.000              0.000
 Translational            0.889              2.981             46.568
 Rotational               0.889              2.981             40.304
 Vibrational             25.184              7.173              5.955
 Vibration     1          0.633              1.856              2.249
 Vibration     2          0.646              1.815              1.981
 Vibration     3          0.722              1.589              1.198

 Optimization completed.
    -- Stationary point found.
 Normal termination of Gaussian 16 at Fri Feb  2 03:05:00 2024.
