 Gaussian 09, Revision E.01,
 Gaussian 09:  EM64M-G09RevE.01 30-Nov-2015

 -------------------------------
 # PBE1PBE/Def2SVP scf=tight nmr
 -------------------------------

 ------------
 ../qchem.out
 ------------
 Symbolic Z-matrix:
 Charge =  0 Multiplicity = 1

                          Input orientation:
 ---------------------------------------------------------------------
 Center     Atomic      Atomic             Coordinates (Angstroms)
 Number     Number       Type             X           Y           Z
 ---------------------------------------------------------------------
      1          6           0        3.963530   -0.580290   -0.003450
      2          6           0        4.756690    0.648590   -0.125060
      3          6           0        4.376940    1.937470   -0.262340
      4          6           0        3.055670    2.569070   -0.185320
      5          6           0        2.857920    3.797250   -0.838180
      6          6           0        1.993290    2.068730    0.591560
      7          6           0        1.651340    4.478720   -0.744410
      8          6           0        0.786790    2.748010    0.682650
      9          6           0        0.580290    3.963530    0.003450
     10          6           0       -0.648590    4.756690    0.125060
     11          6           0       -1.937470    4.376940    0.262340
     12          6           0       -2.569070    3.055670    0.185320
     13          6           0       -3.797250    2.857920    0.838180
     14          6           0       -2.068730    1.993290   -0.591560
     15          6           0       -4.478720    1.651340    0.744410
     16          6           0       -2.748010    0.786790   -0.682650
     17          6           0       -3.963530    0.580290   -0.003450
     18          6           0       -4.756690   -0.648590   -0.125060
     19          6           0       -4.376940   -1.937470   -0.262340
     20          6           0       -3.055670   -2.569070   -0.185320
     21          6           0       -2.857920   -3.797250   -0.838180
     22          6           0       -1.993290   -2.068730    0.591560
     23          6           0       -1.651340   -4.478720   -0.744410
     24          6           0       -0.786790   -2.748010    0.682650
     25          6           0       -0.580290   -3.963530    0.003450
     26          6           0        0.648590   -4.756690    0.125060
     27          6           0        1.937470   -4.376940    0.262340
     28          6           0        2.569070   -3.055670    0.185320
     29          6           0        3.797250   -2.857920    0.838180
     30          6           0        2.068730   -1.993290   -0.591560
     31          6           0        2.748010   -0.786790   -0.682650
     32          6           0        4.478720   -1.651340    0.744410
     33          1           0        5.841090    0.476790   -0.118120
     34          1           0        5.193850    2.650050   -0.435260
     35          1           0        3.675830    4.228740   -1.424400
     36          1           0        2.130340    1.146260    1.161290
     37          1           0        1.531690    5.437980   -1.258560
     38          1           0       -0.006400    2.346870    1.319320
     39          1           0       -0.476790    5.841090    0.118120
     40          1           0       -2.650050    5.193850    0.435260
     41          1           0       -4.228740    3.675830    1.424400
     42          1           0       -1.146260    2.130340   -1.161290
     43          1           0       -5.437980    1.531690    1.258560
     44          1           0       -2.346870   -0.006400   -1.319320
     45          1           0       -5.841090   -0.476790   -0.118120
     46          1           0       -5.193850   -2.650050   -0.435260
     47          1           0       -3.675830   -4.228740   -1.424400
     48          1           0       -2.130340   -1.146260    1.161290
     49          1           0       -1.531690   -5.437980   -1.258560
     50          1           0        0.006400   -2.346870    1.319320
     51          1           0        0.476790   -5.841090    0.118120
     52          1           0        2.650050   -5.193850    0.435260
     53          1           0        4.228740   -3.675830    1.424400
     54          1           0        1.146260   -2.130340   -1.161290
     55          1           0        2.346870    0.006400   -1.319320
     56          1           0        5.437980   -1.531690    1.258560
     57          0           0        0.000000    0.000000    0.000000
     58          0           0        0.000000    0.000000    1.000000
     59          0           0        0.000000    0.000000   -1.000000
     60          0           0        1.820883    3.270885   -0.081708
     61          0           0        1.488386    2.774112   -0.883371
     62          0           0        2.153381    3.767658    0.719954
     63          0           0        3.482355    0.976130   -0.111210
     64          0           0       -3.482355   -0.976130   -0.111210
 ---------------------------------------------------------------------

 SCF Done:  E(RPBE1PBE) =  -1231.48008419     A.U. after   14 cycles

      1  C    Isotropic =    58.2117   Anisotropy =   179.5869

      2  C    Isotropic =    62.6090   Anisotropy =   130.0302

      3  C    Isotropic =    62.8412   Anisotropy =   128.1560

      4  C    Isotropic =    59.0756   Anisotropy =   180.0510

      5  C    Isotropic =    62.3769   Anisotropy =   162.6386

      6  C    Isotropic =    67.2382   Anisotropy =   173.1836

      7  C    Isotropic =    63.2905   Anisotropy =   163.7378

      8  C    Isotropic =    66.5452   Anisotropy =   171.6419

      9  C    Isotropic =    58.2117   Anisotropy =   179.5869

     10  C    Isotropic =    62.6090   Anisotropy =   130.0302

     11  C    Isotropic =    62.8412   Anisotropy =   128.1560

     12  C    Isotropic =    59.0756   Anisotropy =   180.0510

     13  C    Isotropic =    62.3769   Anisotropy =   162.6386

     14  C    Isotropic =    67.2382   Anisotropy =   173.1836

     15  C    Isotropic =    63.2905   Anisotropy =   163.7378

     16  C    Isotropic =    66.5452   Anisotropy =   171.6419

     17  C    Isotropic =    58.2117   Anisotropy =   179.5869

     18  C    Isotropic =    62.6090   Anisotropy =   130.0302

     19  C    Isotropic =    62.8412   Anisotropy =   128.1560

     20  C    Isotropic =    59.0756   Anisotropy =   180.0510

     21  C    Isotropic =    62.3769   Anisotropy =   162.6386

     22  C    Isotropic =    67.2382   Anisotropy =   173.1836

     23  C    Isotropic =    63.2905   Anisotropy =   163.7378

     24  C    Isotropic =    66.5452   Anisotropy =   171.6419

     25  C    Isotropic =    58.2117   Anisotropy =   179.5869

     26  C    Isotropic =    62.6090   Anisotropy =   130.0302

     27  C    Isotropic =    62.8412   Anisotropy =   128.1560

     28  C    Isotropic =    59.0756   Anisotropy =   180.0510

     29  C    Isotropic =    62.3769   Anisotropy =   162.6386

     30  C    Isotropic =    67.2382   Anisotropy =   173.1836

     31  C    Isotropic =    66.5452   Anisotropy =   171.6419

     32  C    Isotropic =    63.2905   Anisotropy =   163.7378

     33  H    Isotropic =    25.2899   Anisotropy =     5.4347

     34  H    Isotropic =    25.3554   Anisotropy =     5.6271

     35  H    Isotropic =    24.4040   Anisotropy =     5.7554

     36  H    Isotropic =    22.8032   Anisotropy =    11.0418

     37  H    Isotropic =    24.4128   Anisotropy =     5.7886

     38  H    Isotropic =    22.8808   Anisotropy =    10.4628

     39  H    Isotropic =    25.2899   Anisotropy =     5.4347

     40  H    Isotropic =    25.3554   Anisotropy =     5.6271

     41  H    Isotropic =    24.4040   Anisotropy =     5.7554

     42  H    Isotropic =    22.8032   Anisotropy =    11.0418

     43  H    Isotropic =    24.4128   Anisotropy =     5.7886

     44  H    Isotropic =    22.8808   Anisotropy =    10.4628

     45  H    Isotropic =    25.2899   Anisotropy =     5.4347

     46  H    Isotropic =    25.3554   Anisotropy =     5.6271

     47  H    Isotropic =    24.4040   Anisotropy =     5.7554

     48  H    Isotropic =    22.8032   Anisotropy =    11.0418

     49  H    Isotropic =    24.4128   Anisotropy =     5.7886

     50  H    Isotropic =    22.8808   Anisotropy =    10.4628

     51  H    Isotropic =    25.2899   Anisotropy =     5.4347

     52  H    Isotropic =    25.3554   Anisotropy =     5.6271

     53  H    Isotropic =    24.4040   Anisotropy =     5.7554

     54  H    Isotropic =    22.8032   Anisotropy =    11.0418

     55  H    Isotropic =    22.8808   Anisotropy =    10.4628

     56  H    Isotropic =    24.4128   Anisotropy =     5.7886

     57  Bq   Isotropic =    -0.4438   Anisotropy =     7.9057

     58  Bq   Isotropic =    -0.5409   Anisotropy =     7.0334

     59  Bq   Isotropic =    -0.5409   Anisotropy =     7.0334

     60  Bq   Isotropic =     6.4439   Anisotropy =     4.2605

     61  Bq   Isotropic =     7.5935   Anisotropy =    19.5392

     62  Bq   Isotropic =     9.7510   Anisotropy =    21.6670

     63  Bq   Isotropic =    -4.3749   Anisotropy =    19.4399

     64  Bq   Isotropic =    -4.3750   Anisotropy =    19.4400

 Alpha  occ. eigenvalues --  -10.25091 -10.25089 -10.25089 -10.25088 -10.25074
 Alpha  occ. eigenvalues --  -10.25074 -10.25074 -10.25073 -10.24610 -10.24608
 Alpha  occ. eigenvalues --  -10.24608 -10.24606 -10.24540 -10.24539 -10.24539
 Alpha  occ. eigenvalues --  -10.24538 -10.24223 -10.24223 -10.24223 -10.24223
 Alpha  occ. eigenvalues --  -10.24176 -10.24176 -10.24176 -10.24175 -10.24075
 Alpha  occ. eigenvalues --  -10.24075 -10.24075 -10.24074 -10.24015 -10.24012
 Alpha  occ. eigenvalues --  -10.24012 -10.24010  -0.89206  -0.88725  -0.88725
 Alpha  occ. eigenvalues --   -0.88039  -0.84084  -0.82374  -0.82374  -0.78897
 Alpha  occ. eigenvalues --   -0.78852  -0.76709  -0.76499  -0.76499  -0.76265
 Alpha  occ. eigenvalues --   -0.74642  -0.74642  -0.71301  -0.67628  -0.64329
 Alpha  occ. eigenvalues --   -0.64329  -0.63284  -0.62407  -0.62407  -0.62108
 Alpha  occ. eigenvalues --   -0.60908  -0.57115  -0.57052  -0.57052  -0.56952
 Alpha  occ. eigenvalues --   -0.54172  -0.51727  -0.51727  -0.51147  -0.49240
 Alpha  occ. eigenvalues --   -0.49240  -0.49053  -0.48035  -0.46093  -0.46093
 Alpha  occ. eigenvalues --   -0.45728  -0.45610  -0.44296  -0.44210  -0.44210
 Alpha  occ. eigenvalues --   -0.44087  -0.43677  -0.43490  -0.43314  -0.43314
 Alpha  occ. eigenvalues --   -0.42628  -0.40783  -0.40783  -0.39744  -0.39494
 Alpha  occ. eigenvalues --   -0.38912  -0.38912  -0.37834  -0.36816  -0.35805
 Alpha  occ. eigenvalues --   -0.35805  -0.35566  -0.35354  -0.35354  -0.35313
 Alpha  occ. eigenvalues --   -0.34339  -0.34090  -0.32049  -0.32049  -0.28554
 Alpha  occ. eigenvalues --   -0.28110  -0.27701  -0.27081  -0.27081  -0.26384
 Alpha  occ. eigenvalues --   -0.23448  -0.23448  -0.20351
 Alpha virt. eigenvalues --   -0.07855  -0.04485  -0.04485  -0.01976  -0.00548
 Alpha virt. eigenvalues --   -0.00548   0.00719   0.01130   0.01706   0.06381
 Alpha virt. eigenvalues --    0.06381   0.06725   0.07681   0.07771   0.07771

 Mulliken charges:
               1
     1  C   -0.016896
     2  C   -0.017897
     3  C   -0.011277
     4  C   -0.007427
     5  C   -0.027676
     6  C   -0.021765
     7  C   -0.022146
     8  C   -0.019175
     9  C   -0.016896
    10  C   -0.017897
    11  C   -0.011277
    12  C   -0.007427
    13  C   -0.027676
    14  C   -0.021765
    15  C   -0.022146
    16  C   -0.019175
    17  C   -0.016896
    18  C   -0.017897
    19  C   -0.011277
    20  C   -0.007427
    21  C   -0.027676
    22  C   -0.021765
    23  C   -0.022146
    24  C   -0.019175
    25  C   -0.016896
    26  C   -0.017897
    27  C   -0.011277
    28  C   -0.007427
    29  C   -0.027676
    30  C   -0.021765
    31  C   -0.019175
    32  C   -0.022146
    33  H    0.031695
    34  H    0.026911
    35  H    0.011340
    36  H    0.033811
    37  H    0.011045
    38  H    0.029458
    39  H    0.031695
    40  H    0.026911
    41  H    0.011340
    42  H    0.033811
    43  H    0.011045
    44  H    0.029458
    45  H    0.031695
    46  H    0.026911
    47  H    0.011340
    48  H    0.033811
    49  H    0.011045
    50  H    0.029458
    51  H    0.031695
    52  H    0.026911
    53  H    0.011340
    54  H    0.033811
    55  H    0.029458
    56  H    0.011045
    57  Bq   0.000000
    58  Bq   0.000000
    59  Bq   0.000000
    60  Bq   0.000000
    61  Bq   0.000000
    62  Bq   0.000000
    63  Bq   0.000000
    64  Bq   0.000000
 Sum of Mulliken charges =  -0.00000

 Dipole moment (field-independent basis, Debye):
    X=             -0.0000    Y=             -0.0000    Z=             -0.0000  Tot=              0.0000
 Quadrupole moment (field-independent basis, Debye-Ang):
   XX=           -169.2720   YY=           -169.2720   ZZ=           -189.9655
   XY=              0.0000   XZ=             -0.0000   YZ=              0.0000

 Normal termination of Gaussian 09 at Mon Feb 15 16:22:33 2021.
