 Gaussian 16, Revision C.01,
 Gaussian 16:  ES64L-G16RevC.01  3-Jul-2019

 -------------------------------------------
 #P RHF/Def2SVP Opt Freq pop=regular GFInput
 -------------------------------------------

 ---------
 h2o, vibr
 ---------
 Symbolic Z-matrix:
 Charge =  0 Multiplicity = 1

 SCF Done:  E(RHF) =  -75.9440236143     A.U. after   10 cycles
 SCF Done:  E(RHF) =  -75.9612072337     A.U. after   10 cycles
 SCF Done:  E(RHF) =  -75.9613375569     A.U. after    8 cycles
 SCF Done:  E(RHF) =  -75.9613384744     A.U. after    7 cycles
 Optimization completed.
    -- Stationary point found.
 Normal termination of Gaussian 16 at Wed Sep 14 13:03:16 2022.

 ----------------------------------------------------------------
 #P Geom=AllCheck Guess=TCheck SCRF=Check GenChk RHF/def2SVP Freq
 ----------------------------------------------------------------

 Structure from the checkpoint file:  "/net/ascratch/people/plgmradon/slurm_jobdir/845521/Gau-24106.chk"
 ---------
 h2o, vibr
 ---------
 Charge =  0 Multiplicity = 1

                         Standard orientation:
 ---------------------------------------------------------------------
 Center     Atomic      Atomic             Coordinates (Angstroms)
 Number     Number       Type             X           Y           Z
 ---------------------------------------------------------------------
      1          8           0       -0.000000   -0.000000    0.114845
      2          1           0        0.000000    0.750382   -0.459380
      3          1           0       -0.000000   -0.750382   -0.459380
 ---------------------------------------------------------------------

 SCF Done:  E(RHF) =  -75.9613384744     A.U. after    1 cycles

 The electronic state is 1-A1.
 Alpha  occ. eigenvalues --  -20.54340  -1.32489  -0.71161  -0.56921  -0.49884
 Alpha virt. eigenvalues --    0.17825   0.25710   0.80661   0.87948   1.18380
 Alpha virt. eigenvalues --    1.20186   1.26785   1.33885   1.59837   1.67019
 Alpha virt. eigenvalues --    1.81510   2.07063   2.59745   2.63063   3.33543

 Mulliken charges:
               1
     1  O   -0.334385
     2  H    0.167193
     3  H    0.167193
 Sum of Mulliken charges =  -0.00000

 Dipole moment (field-independent basis, Debye):
    X=             -0.0000    Y=             -0.0000    Z=             -2.1093  Tot=              2.1093
 Quadrupole moment (field-independent basis, Debye-Ang):
   XX=             -7.0126   YY=             -4.1468   ZZ=             -5.9427
   XY=              0.0000   XZ=              0.0000   YZ=              0.0000

  Exact polarizability:       2.984       0.000       6.565      -0.000      -0.000       4.829
 Approx polarizability:       2.455       0.000       5.331       0.000       0.000       4.054

                      1                      2                      3
                     A1                     A1                     B2
 Frequencies --   1750.0670              4149.9265              4246.2477
 Red. masses --      1.0816                 1.0461                 1.0825
 Frc consts  --      1.9518                10.6150                11.4998
 IR Inten    --     82.7485                26.8141                74.5973
 Raman Activ --      5.1253                68.0382                33.5357

 - Thermochemistry -
 -------------------
 Temperature   298.150 Kelvin.  Pressure   1.00000 Atm.
 Atom     1 has atomic number  8 and mass  15.99491

 Molecular mass:    18.01056 amu.
 Principal axes and moments of inertia in atomic units:
                           1         2         3
     Eigenvalues --     2.10781   4.05301   6.16082
           X            0.00000   0.00000   1.00000
           Y            1.00000  -0.00000  -0.00000
           Z            0.00000   1.00000  -0.00000
 This molecule is an asymmetric top.
 Rotational symmetry number  2.
 Rotational temperatures (Kelvin)     41.09188    21.37029    14.05884
 Rotational constants (GHZ):         856.21573   445.28465   292.93862
 Zero-point vibrational energy      60688.0 (Joules/Mol)
                                   14.50478 (Kcal/Mol)
 Vibrational temperatures:   2517.96  5970.82  6109.40
          (Kelvin)

 Zero-point correction=                           0.023115 (Hartree/Particle)
 Thermal correction to Energy=                    0.025949
 Thermal correction to Enthalpy=                  0.026893
 Thermal correction to Gibbs Free Energy=         0.005524
 Sum of electronic and zero-point Energies=            -75.938224
 Sum of electronic and thermal Energies=               -75.935389
 Sum of electronic and thermal Enthalpies=             -75.934445
 Sum of electronic and thermal Free Energies=          -75.955815

                     E (Thermal)             CV                S
                      KCal/Mol        Cal/Mol-Kelvin    Cal/Mol-Kelvin
 Total                   16.283              5.992             44.976
 Electronic               0.000              0.000              0.000
 Translational            0.889              2.981             34.608
 Rotational               0.889              2.981             10.363
 Vibrational             14.506              0.030              0.004

 Optimization completed.
    -- Stationary point found.
 Normal termination of Gaussian 16 at Wed Sep 14 13:03:18 2022.
