 Gaussian 16, Revision C.01,
 Gaussian 16:  ES64L-G16RevC.01  3-Jul-2019

 ---------------------------------------
 #P freq mp2/aug-cc-pvdz Symmetry=Follow
 ---------------------------------------

 ---------
 Oproto sp
 ---------
 Symbolic Z-matrix:
 Charge =  1 Multiplicity = 1

                         Standard orientation:
 ---------------------------------------------------------------------
 Center     Atomic      Atomic             Coordinates (Angstroms)
 Number     Number       Type             X           Y           Z
 ---------------------------------------------------------------------
      1          6           0        0.004177    0.130116    0.015970
      2          6           0       -1.424491    0.231383    0.027711
      3          6           0        0.602695   -1.161041    0.018656
      4          6           0        0.838112    1.281548    0.001431
      5          8           0       -2.155041   -0.831849    0.065995
      6          8           0       -2.097050    1.373773    0.006385
      7          1           0       -3.153852   -0.622525    0.036930
      8          1           0       -1.491781    2.133395   -0.042369
      9          6           0        1.984101   -1.293539    0.004742
     10          1           0       -0.030142   -2.050777    0.030072
     11          6           0        2.824310   -0.141338   -0.011404
     12          1           0        2.436013   -2.289748    0.005685
     13          7           0        4.173926   -0.271411   -0.024848
     14          6           0        2.221181    1.150319   -0.011959
     15          1           0        4.779752    0.539099   -0.038492
     16          1           0        4.611823   -1.183901   -0.025712
     17          1           0        2.853579    2.042484   -0.021784
     18          1           0        0.429676    2.298455    0.005087
     19          8           0       -4.687003   -0.433641   -0.107980
     20          1           0       -5.262155   -1.205603   -0.208981
     21          1           0       -5.178153    0.188041    0.447415
 ---------------------------------------------------------------------

 SCF Done:  E(RHF) =  -549.837499284     A.U. after   16 cycles
 E2 =    -0.1720516438D+01 EUMP2 =    -0.55155801572117D+03
 E2 =    -0.1720516438D+01 EUMP2 =    -0.55155801572117D+03

 The electronic state is 1-A.
 Alpha  occ. eigenvalues --  -20.80684 -20.77683 -20.74264 -15.73121 -11.59523
 Alpha  occ. eigenvalues --  -11.46637 -11.42649 -11.41500 -11.39996 -11.38614
 Alpha  occ. eigenvalues --  -11.38104  -1.66463  -1.56980  -1.52104  -1.38811
 Alpha  occ. eigenvalues --   -1.29696  -1.18180  -1.17425  -1.06818  -1.00111
 Alpha  occ. eigenvalues --   -0.99500  -0.95438  -0.89548  -0.88094  -0.86245
 Alpha  occ. eigenvalues --   -0.84811  -0.82164  -0.80126  -0.78189  -0.75993
 Alpha  occ. eigenvalues --   -0.74850  -0.73956  -0.72254  -0.69712  -0.69222
 Alpha  occ. eigenvalues --   -0.68396  -0.67416  -0.64485  -0.60285  -0.49604
 Alpha  occ. eigenvalues --   -0.44889
 Alpha virt. eigenvalues --   -0.08592  -0.07221  -0.05920  -0.05437  -0.04339
 Alpha virt. eigenvalues --   -0.03720  -0.02979  -0.02541  -0.02151  -0.01535
 Alpha virt. eigenvalues --   -0.00848   0.00413   0.00621   0.01722   0.01996

 Mulliken charges:
               1
     1  C    1.738310
     2  C    0.967362
     3  C    0.014290
     4  C    0.247612
     5  O   -0.967243
     6  O   -0.663779
     7  H    0.559118
     8  H    0.224314
     9  C    0.857653
    10  H   -0.600376
    11  C    0.130079
    12  H   -0.555425
    13  N   -0.351810
    14  C    0.661212
    15  H   -0.003250
    16  H    0.000391
    17  H   -0.563091
    18  H   -0.642742
    19  O   -0.450389
    20  H    0.210487
    21  H    0.187278
 Sum of Mulliken charges =   1.00000

 Dipole moment (field-independent basis, Debye):
    X=             -1.5139    Y=              1.0192    Z=              0.6177  Tot=              1.9268
 Quadrupole moment (field-independent basis, Debye-Ang):
   XX=             13.6619   YY=            -45.7235   ZZ=            -68.3291
   XY=              1.6136   XZ=             -4.0731   YZ=              0.7423

  Exact polarizability:     209.333      -5.228     106.099      -1.347      -0.038      62.189
 Approx polarizability:     138.663      -2.150      97.889      -0.980       0.256      66.339

                      1                      2                      3
                      A                      A                      A
 Frequencies --     42.7693                50.7911                57.1921
 Red. masses --      1.2304                 4.0734                 3.0724
 Frc consts  --      0.0013                 0.0062                 0.0059
 IR Inten    --     22.7339                 8.9564                10.1611

                      4                      5                      6
                      A                      A                      A
 Frequencies --     72.5510               112.3176               181.7009
 Red. masses --      3.9903                 5.8603                 5.0152
 Frc consts  --      0.0124                 0.0436                 0.0976
 IR Inten    --      1.0122                 0.4644                 8.6561

                      7                      8                      9
                      A                      A                      A
 Frequencies --    259.3716               264.0986               282.9740
 Red. masses --      3.7654                 3.9721                 1.3146
 Frc consts  --      0.1492                 0.1632                 0.0620
 IR Inten    --     32.6887                22.9044               167.0337

                     10                     11                     12
                      A                      A                      A
 Frequencies --    305.9364               372.4495               387.8587
 Red. masses --      1.3483                 4.5082                 2.9357
 Frc consts  --      0.0744                 0.3685                 0.2602
 IR Inten    --    188.9188                31.6812                34.1814

                     13                     14                     15
                      A                      A                      A
 Frequencies --    392.2581               428.3546               484.2708
 Red. masses --      2.6672                 1.2702                 1.9886
 Frc consts  --      0.2418                 0.1373                 0.2748
 IR Inten    --     12.8271                18.2441                 0.4373

                     16                     17                     18
                      A                      A                      A
 Frequencies --    491.9763               514.3668               536.4887
 Red. masses --      1.0394                 4.4644                 1.4032
 Frc consts  --      0.1482                 0.6959                 0.2380
 IR Inten    --      0.1114                16.7670               130.2648

                     19                     20                     21
                      A                      A                      A
 Frequencies --    609.6338               630.3723               669.5092
 Red. masses --      5.1757                 6.7699                 4.7419
 Frc consts  --      1.1333                 1.5850                 1.2523
 IR Inten    --      5.8054                 2.5392                 8.7001

                     22                     23                     24
                      A                      A                      A
 Frequencies --    757.7497               763.2840               797.1030
 Red. masses --      5.2309                 5.5775                 1.4256
 Frc consts  --      1.7696                 1.9145                 0.5337
 IR Inten    --     20.8369                23.3331                 3.3954

                     25                     26                     27
                      A                      A                      A
 Frequencies --    839.9850               851.9726               908.5679
 Red. masses --      1.7833                 5.8406                 1.2027
 Frc consts  --      0.7413                 2.4978                 0.5850
 IR Inten    --     24.5182                 3.9324                 0.2955

                     28                     29                     30
                      A                      A                      A
 Frequencies --    948.7958               999.8554              1032.2671
 Red. masses --      1.2956                 2.8828                 1.0611
 Frc consts  --      0.6872                 1.6980                 0.6662
 IR Inten    --      0.3059                 2.0909                91.7349

                     31                     32                     33
                      A                      A                      A
 Frequencies --   1042.4560              1134.6481              1157.6573
 Red. masses --      1.4201                 2.6974                 1.2043
 Frc consts  --      0.9092                 2.0461                 0.9509
 IR Inten    --      0.3917                25.9863                 8.1717

                     34                     35                     36
                      A                      A                      A
 Frequencies --   1206.6712              1227.4626              1331.3986
 Red. masses --      1.1228                 1.5806                 1.3130
 Frc consts  --      0.9632                 1.4031                 1.3713
 IR Inten    --    216.2907               127.6879                 4.2616

                     37                     38                     39
                      A                      A                      A
 Frequencies --   1371.8946              1392.0717              1419.1747
 Red. masses --      1.7791                 2.5520                 3.1357
 Frc consts  --      1.9728                 2.9137                 3.7210
 IR Inten    --    388.6424               893.9394                28.8696

                     40                     41                     42
                      A                      A                      A
 Frequencies --   1534.1106              1545.6005              1554.3772
 Red. masses --      2.2315                 6.6391                 4.3216
 Frc consts  --      3.0942                 9.3445                 6.1519
 IR Inten    --    141.0100                43.4619               286.4969

                     43                     44                     45
                      A                      A                      A
 Frequencies --   1606.5147              1631.1767              1652.4020
 Red. masses --      4.8558                 1.1307                 1.6760
 Frc consts  --      7.3838                 1.7726                 2.6963
 IR Inten    --    106.8336                21.9860               305.0828

                     46                     47                     48
                      A                      A                      A
 Frequencies --   1656.5213              1691.1400              2843.6831
 Red. masses --      3.8498                 2.6409                 1.0770
 Frc consts  --      6.2241                 4.4500                 5.1314
 IR Inten    --   1414.4521               179.7329              4141.7483

                     49                     50                     51
                      A                      A                      A
 Frequencies --   3183.0883              3216.9101              3222.4157
 Red. masses --      1.0900                 1.0914                 1.0955
 Frc consts  --      6.5068                 6.6542                 6.7026
 IR Inten    --      6.9826                 0.5212                 0.3340

                     52                     53                     54
                      A                      A                      A
 Frequencies --   3245.1692              3596.8213              3735.3918
 Red. masses --      1.0954                 1.0469                 1.1058
 Frc consts  --      6.7966                 7.9794                 9.0907
 IR Inten    --      2.0582               303.3381                68.6492

                     55                     56                     57
                      A                      A                      A
 Frequencies --   3754.6580              3780.4343              3901.5061
 Red. masses --      1.0658                 1.0450                 1.0827
 Frc consts  --      8.8526                 8.7995                 9.7097
 IR Inten    --     91.5351                62.1679               145.3423

 - Thermochemistry -
 -------------------
 Temperature   298.150 Kelvin.  Pressure   1.00000 Atm.
 Atom     1 has atomic number  6 and mass  12.00000

 Molecular mass:   156.06607 amu.
 Principal axes and moments of inertia in atomic units:
                           1         2         3
     Eigenvalues --   521.320673949.009134466.50605
           X            1.00000   0.00266  -0.00145
           Y           -0.00266   1.00000   0.00083
           Z            0.00145  -0.00082   1.00000
 This molecule is an asymmetric top.
 Rotational symmetry number  1.
 Warning -- assumption of classical behavior for rotation
           may cause significant error
 Rotational temperatures (Kelvin)      0.16614     0.02193     0.01939
 Rotational constants (GHZ):           3.46186     0.45701     0.40406
 Zero-point vibrational energy     440717.3 (Joules/Mol)
                                  105.33396 (Kcal/Mol)
 Warning -- explicit consideration of  19 degrees of freedom as
           vibrations may cause significant error
 Vibrational temperatures:     61.54    73.08    82.29   104.38   161.60
          (Kelvin)            261.43   373.18   379.98   407.14   440.17
                              535.87   558.04   564.37   616.31   696.76
                              707.84   740.06   771.89   877.13   906.97
                              963.27  1090.23  1098.20  1146.85  1208.55
                             1225.80  1307.23  1365.11  1438.57  1485.20
                             1499.86  1632.51  1665.61  1736.13  1766.04
                             1915.59  1973.85  2002.88  2041.88  2207.24
                             2223.77  2236.40  2311.42  2346.90  2377.44
                             2383.36  2433.17  4091.43  4579.75  4628.42
                             4636.34  4669.07  5175.02  5374.40  5402.12
                             5439.20  5613.40

 Zero-point correction=                           0.167860 (Hartree/Particle)
 Thermal correction to Energy=                    0.180363
 Thermal correction to Enthalpy=                  0.181308
 Thermal correction to Gibbs Free Energy=         0.128340
 Sum of electronic and zero-point Energies=           -551.390155
 Sum of electronic and thermal Energies=              -551.377652
 Sum of electronic and thermal Enthalpies=            -551.376708
 Sum of electronic and thermal Free Energies=         -551.429676

                     E (Thermal)             CV                S
                      KCal/Mol        Cal/Mol-Kelvin    Cal/Mol-Kelvin
 Total                  113.180             45.220            111.480
 Electronic               0.000              0.000              0.000
 Translational            0.889              2.981             41.045
 Rotational               0.889              2.981             30.598
 Vibrational            111.402             39.258             39.837
 Vibration     1          0.595              1.980              5.127
 Vibration     2          0.595              1.977              4.786
 Vibration     3          0.596              1.975              4.552
 Vibration     4          0.599              1.967              4.083
 Vibration     5          0.607              1.939              3.228
 Vibration     6          0.630              1.865              2.311
 Vibration     7          0.668              1.747              1.666
 Vibration     8          0.671              1.739              1.635
 Vibration     9          0.682              1.705              1.516
 Vibration    10          0.696              1.662              1.384
 Vibration    11          0.744              1.529              1.070
 Vibration    12          0.756              1.496              1.008
 Vibration    13          0.760              1.487              0.992
 Vibration    14          0.790              1.409              0.864
 Vibration    15          0.840              1.285              0.699
 Vibration    16          0.848              1.268              0.678
 Vibration    17          0.869              1.218              0.623
 Vibration    18          0.891              1.169              0.573
 Vibration    19          0.969              1.011              0.433

 Normal termination of Gaussian 16 at Mon Oct 16 01:27:11 2023.
