 Gaussian 16, Revision B.01,
 Gaussian 16:  ES64L-G16RevB.01 20-Dec-2017

 ----------------------------------------------------------------------
 #P guess=mix ub3lyp/6-311+g(3df,2p) freq iop(7/33=1) scf=(tight, direc
 t) integral=(grid=ultrafine, Acc2E=12) scf=xqc iop(2/9=2000)
 ----------------------------------------------------------------------

 ----
 name
 ----
 Symbolic Z-matrix:
 Charge =  0 Multiplicity = 2

                         Standard orientation:
 ---------------------------------------------------------------------
 Center     Atomic      Atomic             Coordinates (Angstroms)
 Number     Number       Type             X           Y           Z
 ---------------------------------------------------------------------
      1          8           0        0.000000    1.179060    0.000000
      2          6           0        0.506113   -0.172812   -0.000000
      3          6           0       -0.637264   -1.116652   -0.000000
      4          1           0        1.128548   -0.331184    0.887124
      5          1           0        1.128548   -0.331184   -0.887124
      6          1           0       -1.109569   -1.408144    0.926890
      7          1           0       -1.109569   -1.408144   -0.926890
      8          1           0        0.748947    1.782958    0.000000
 ---------------------------------------------------------------------

 SCF Done:  E(UB3LYP) =  -154.429643325     A.U. after   15 cycles

 The electronic state is 2-A'.
 Alpha  occ. eigenvalues --  -19.12689 -10.22382 -10.18810  -1.02287  -0.75894
 Alpha  occ. eigenvalues --   -0.61279  -0.52022  -0.48311  -0.42488  -0.39325
 Alpha  occ. eigenvalues --   -0.35184  -0.28399  -0.23516
 Alpha virt. eigenvalues --   -0.00039   0.02449   0.03849   0.04060   0.07231
 Alpha virt. eigenvalues --    0.07538   0.08400   0.12771   0.14028   0.15460
 Alpha virt. eigenvalues --    0.16480   0.17595   0.18908   0.19345   0.23229

  Beta  occ. eigenvalues --  -19.12508 -10.22463 -10.17410  -1.01860  -0.73889
  Beta  occ. eigenvalues --   -0.59361  -0.51344  -0.47859  -0.41771  -0.38769
  Beta  occ. eigenvalues --   -0.34782  -0.28223
  Beta virt. eigenvalues --   -0.08568   0.00176   0.02831   0.04063   0.04328
  Beta virt. eigenvalues --    0.07242   0.07539   0.09448   0.13154   0.14374
  Beta virt. eigenvalues --    0.15521   0.16826   0.18149   0.19150   0.20221

 Mulliken charges and spin densities:
               1          2
     1  O   -0.575780   0.012125
     2  C    0.125029  -0.041662
     3  C   -0.373497   1.060088
     4  H    0.143056   0.006370
     5  H    0.143056   0.006370
     6  H    0.159609  -0.028570
     7  H    0.159609  -0.028570
     8  H    0.218919   0.013848
 Sum of Mulliken charges =  -0.00000   1.00000

 Dipole moment (field-independent basis, Debye):
    X=              1.5070    Y=             -0.4417    Z=             -0.0000  Tot=              1.5704
 Quadrupole moment (field-independent basis, Debye-Ang):
   XX=            -18.5445   YY=            -19.4766   ZZ=            -19.2373
   XY=              3.3540   XZ=              0.0000   YZ=              0.0000

  Exact polarizability:  32.241   3.109  36.754  -0.000  -0.000  29.108
 Approx polarizability:  41.433   2.531  44.875  -0.000   0.000  38.625

 ******    1 imaginary frequencies (negative Signs) ******

                      1                      2                      3
                     A"                     A"                     A'
 Frequencies --   -154.3313               222.9604               384.5362
 Red. masses --      1.0687                 1.1030                 1.9856
 Frc consts  --      0.0150                 0.0323                 0.1730
 IR Inten    --      2.1073               113.2586                29.2942

                      4                      5                      6
                     A'                     A"                     A'
 Frequencies --    622.1873               811.6276               958.5711
 Red. masses --      1.9401                 1.0764                 7.3715
 Frc consts  --      0.4425                 0.4178                 3.9908
 IR Inten    --     16.6142                 0.0751                72.2010

                      7                      8                      9
                     A'                     A"                     A'
 Frequencies --   1035.7819              1166.8513              1221.7078
 Red. masses --      2.7545                 1.5290                 1.1134
 Frc consts  --      1.7411                 1.2266                 0.9792
 IR Inten    --     59.3475                 0.3904                42.0057

                     10                     11                     12
                     A"                     A'                     A'
 Frequencies --   1281.4325              1420.5184              1473.4279
 Red. masses --      1.0933                 1.2836                 1.1869
 Frc consts  --      1.0577                 1.5261                 1.5182
 IR Inten    --      0.3675                 7.0679                 3.8335

                     13                     14                     15
                     A'                     A'                     A"
 Frequencies --   1520.6439              2981.7043              3012.6374
 Red. masses --      1.1318                 1.0538                 1.1079
 Frc consts  --      1.5419                 5.5200                 5.9242
 IR Inten    --      0.2590                55.1139                39.9501

                     16                     17                     18
                     A'                     A"                     A'
 Frequencies --   3141.1514              3245.9491              3820.1020
 Red. masses --      1.0503                 1.1195                 1.0663
 Frc consts  --      6.1059                 6.9499                 9.1684
 IR Inten    --      7.5344                 8.6606                16.2142

 - Thermochemistry -
 -------------------
 Temperature   298.150 Kelvin.  Pressure   1.00000 Atm.
 Atom     1 has atomic number  8 and mass  15.99491

 Molecular mass:    45.03404 amu.
 Principal axes and moments of inertia in atomic units:
                           1         2         3
     Eigenvalues --    47.28788 185.18831 208.77868
           X            0.30633   0.95193   0.00000
           Y            0.95193  -0.30633  -0.00000
           Z            0.00000  -0.00000   1.00000
 This molecule is an asymmetric top.
 Rotational symmetry number  1.
 Rotational temperatures (Kelvin)      1.83163     0.46771     0.41486
 Rotational constants (GHZ):          38.16498     9.74544     8.64428
    1 imaginary frequencies ignored.
 Zero-point vibrational energy     169401.9 (Joules/Mol)
                                   40.48803 (Kcal/Mol)
 Warning -- explicit consideration of   2 degrees of freedom as
           vibrations may cause significant error
 Vibrational temperatures:    320.79   553.26   895.19  1167.75  1379.17
          (Kelvin)           1490.26  1678.84  1757.77  1843.70  2043.81
                             2119.93  2187.87  4290.01  4334.51  4519.42
                             4670.20  5496.27

 Zero-point correction=                           0.064522 (Hartree/Particle)
 Thermal correction to Energy=                    0.068567
 Thermal correction to Enthalpy=                  0.069511
 Thermal correction to Gibbs Free Energy=         0.038741
 Sum of electronic and zero-point Energies=           -154.365122
 Sum of electronic and thermal Energies=              -154.361077
 Sum of electronic and thermal Enthalpies=            -154.360133
 Sum of electronic and thermal Free Energies=         -154.390903

                     E (Thermal)             CV                S
                      KCal/Mol        Cal/Mol-Kelvin    Cal/Mol-Kelvin
 Total                   43.026             12.479             64.761
 Electronic               0.000              0.000              1.377
 Translational            0.889              2.981             37.340
 Rotational               0.889              2.981             22.130
 Vibrational             41.249              6.518              3.914
 Vibration     1          0.649              1.806              1.935
 Vibration     2          0.753              1.503              1.021

 Optimization completed.
    -- Stationary point found.
 Normal termination of Gaussian 16 at Tue Aug 13 21:12:21 2019.
