 Gaussian 16, Revision A.03,
 Gaussian 16:  ES64L-G16RevA.03 25-Dec-2016

 -----------------------
 # hf/sto-3g opt pop=nbo
 -----------------------

 -----
 Water
 -----
 Symbolic Z-matrix:
 Charge =  1 Multiplicity = 2

 SCF Done:  E(UHF) =  -74.6652984799     A.U. after   10 cycles
 SCF Done:  E(UHF) =  -74.6694694740     A.U. after    9 cycles
 SCF Done:  E(UHF) =  -74.6697410244     A.U. after    8 cycles
 SCF Done:  E(UHF) =  -74.6697432250     A.U. after    8 cycles
 Optimization completed.
    -- Stationary point found.

                         Standard orientation:
 ---------------------------------------------------------------------
 Center     Atomic      Atomic             Coordinates (Angstroms)
 Number     Number       Type             X           Y           Z
 ---------------------------------------------------------------------
      1          8           0       -0.000000    0.000000    0.118740
      2          1           0        0.000000    0.845213   -0.474961
      3          1           0       -0.000000   -0.845213   -0.474961
 ---------------------------------------------------------------------

 The electronic state is 2-B1.
 Alpha  occ. eigenvalues --  -20.99931  -1.87011  -1.14976  -1.08493  -1.02736
 Alpha virt. eigenvalues --    0.02354   0.14558
  Beta  occ. eigenvalues --  -20.96791  -1.69396  -1.10644  -0.96782
  Beta virt. eigenvalues --   -0.19572   0.05114   0.16647

 Mulliken charges and spin densities:
               1          2
     1  O    0.121443   1.136594
     2  H    0.439279  -0.068297
     3  H    0.439279  -0.068297
 Sum of Mulliken charges =   1.00000   1.00000

 Dipole moment (field-independent basis, Debye):
    X=             -0.0000    Y=              0.0000    Z=             -2.4501  Tot=              2.4501
 Quadrupole moment (field-independent basis, Debye-Ang):
   XX=             -4.7109   YY=             -1.7233   ZZ=             -4.2557
   XY=              0.0000   XZ=              0.0000   YZ=              0.0000

 Summary of Natural Population Analysis:

                                       Natural Population
                Natural  -----------------------------------------------
    Atom  No    Charge         Core      Valence    Rydberg      Total
 -----------------------------------------------------------------------
      O    1    0.61438      1.00000     2.38562    0.00000     3.38562
      H    2    0.19281      0.00000     0.30719    0.00000     0.30719
      H    3    0.19281      0.00000     0.30719    0.00000     0.30719
 =======================================================================
   * Total *    1.00000      1.00000     3.00000    0.00000     4.00000

 Normal termination of Gaussian 16 at Tue May  6 22:05:16 2025.
