 Gaussian 16, Revision C.01,
 Gaussian 16:  ES64L-G16RevC.01  3-Jul-2019

 ----------------------------------------------------------------------
 #p Opt Freq PBE1PBE/6-31G(d,p) SCRF=(Solvent=Toluene) EmpiricalDispers
 ion=(GD3BJ) Symmetry=(Tight) Population=(Regular) Density=(Current)
 ----------------------------------------------------------------------

 -----------------------------------------------------------------
 water_Optimisation_Frequencies_PBE1PBE__GD3BJ__Toluene_6_31G_d_p_
 -----------------------------------------------------------------
 Symbolic Z-matrix:
 Charge =  0 Multiplicity = 1

 SCF Done:  E(RPBE1PBE) =  -76.3329398833     A.U. after    8 cycles
 SCF Done:  E(RPBE1PBE) =  -76.3404588388     A.U. after    8 cycles
 SCF Done:  E(RPBE1PBE) =  -76.3406656990     A.U. after    7 cycles
 Optimization completed.
    -- Stationary point found.
 Normal termination of Gaussian 16 at Fri Jun 10 11:08:56 2022.

 ----------------------------------------------------------------------
 #P Geom=AllCheck Guess=TCheck SCRF=Check GenChk RPBE1PBE/6-31G(d,p) Fr
 eq
 ----------------------------------------------------------------------

 Structure from the checkpoint file:  "water.chk"
 -----------------------------------------------------------------
 water_Optimisation_Frequencies_PBE1PBE__GD3BJ__Toluene_6_31G_d_p_
 -----------------------------------------------------------------
 Charge =  0 Multiplicity = 1

                         Standard orientation:
 ---------------------------------------------------------------------
 Center     Atomic      Atomic             Coordinates (Angstroms)
 Number     Number       Type             X           Y           Z
 ---------------------------------------------------------------------
      1          8           0        0.000000    0.000000    0.118941
      2          1           0       -0.000000    0.755981   -0.475764
      3          1           0       -0.000000   -0.755981   -0.475764
 ---------------------------------------------------------------------

 SCF Done:  E(RPBE1PBE) =  -76.3406656990     A.U. after    1 cycles

 The electronic state is 1-A1.
 Alpha  occ. eigenvalues --  -19.21084  -1.02414  -0.52805  -0.38740  -0.30699
 Alpha virt. eigenvalues --    0.09094   0.17719   0.77934   0.83202   0.91187
 Alpha virt. eigenvalues --    0.91522   1.04033   1.19502   1.53815   1.54478
 Alpha virt. eigenvalues --    1.65072   2.25884   2.28903   2.47592   2.65961

 Mulliken charges:
               1
     1  O   -0.654483
     2  H    0.327241
     3  H    0.327241
 Sum of Mulliken charges =   0.00000

 Dipole moment (field-independent basis, Debye):
    X=             -0.0000    Y=             -0.0000    Z=             -2.1751  Tot=              2.1751
 Quadrupole moment (field-independent basis, Debye-Ang):
   XX=             -7.1462   YY=             -4.1953   ZZ=             -5.9319
   XY=              0.0000   XZ=              0.0000   YZ=              0.0000

  Exact polarizability:       3.103       0.000       7.511       0.000       0.000       5.614
 Approx polarizability:       3.245       0.000       8.402       0.000      -0.000       6.434

                      1                      2                      3
                     A1                     A1                     B2
 Frequencies --   1668.2293              3866.1598              3976.5311
 Red. masses --      1.0820                 1.0458                 1.0810
 Frc consts  --      1.7741                 9.2101                10.0711
 IR Inten    --     89.6988                 8.4803                44.2991

 - Thermochemistry -
 -------------------
 Temperature   298.150 Kelvin.  Pressure   1.00000 Atm.
 Atom     1 has atomic number  8 and mass  15.99491

 Molecular mass:    18.01056 amu.
 Principal axes and moments of inertia in atomic units:
                           1         2         3
     Eigenvalues --     2.26084   4.11372   6.37456
           X            0.00000   0.00000   1.00000
           Y            1.00000   0.00000   0.00000
           Z            0.00000   1.00000   0.00000
 This molecule is an asymmetric top.
 Rotational symmetry number  2.
 Rotational temperatures (Kelvin)     38.31042    21.05490    13.58743
 Rotational constants (GHZ):         798.25963   438.71295   283.11609
 Zero-point vibrational energy      56887.9 (Joules/Mol)
                                   13.59654 (Kcal/Mol)
 Vibrational temperatures:   2400.21  5562.54  5721.34
          (Kelvin)

 Zero-point correction=                           0.021667 (Hartree/Particle)
 Thermal correction to Energy=                    0.024502
 Thermal correction to Enthalpy=                  0.025447
 Thermal correction to Gibbs Free Energy=         0.004020
 Sum of electronic and zero-point Energies=            -76.318998
 Sum of electronic and thermal Energies=               -76.316163
 Sum of electronic and thermal Enthalpies=             -76.315219
 Sum of electronic and thermal Free Energies=          -76.336646

                     E (Thermal)             CV                S
                      KCal/Mol        Cal/Mol-Kelvin    Cal/Mol-Kelvin
 Total                   15.376              6.003             45.096
 Electronic               0.000              0.000              0.000
 Translational            0.889              2.981             34.608
 Rotational               0.889              2.981             10.482
 Vibrational             13.598              0.041              0.006

 Optimization completed.
    -- Stationary point found.
 Normal termination of Gaussian 16 at Fri Jun 10 11:09:33 2022.
