 Gaussian 16, Revision A.03,
 Gaussian 16:  ES64L-G16RevA.03 25-Dec-2016

 -----------------------
 # hf/sto-3g opt pop=nbo
 -----------------------

 -----
 Water
 -----
 Symbolic Z-matrix:
 Charge =  0 Multiplicity = 1

 SCF Done:  E(RHF) =  -74.9643287914     A.U. after    7 cycles
 SCF Done:  E(RHF) =  -74.9649723283     A.U. after    7 cycles
 SCF Done:  E(RHF) =  -74.9659003010     A.U. after    6 cycles
 SCF Done:  E(RHF) =  -74.9659011806     A.U. after    6 cycles
 Optimization completed.
    -- Stationary point found.

                         Standard orientation:
 ---------------------------------------------------------------------
 Center     Atomic      Atomic             Coordinates (Angstroms)
 Number     Number       Type             X           Y           Z
 ---------------------------------------------------------------------
      1          8           0       -0.000000    0.000000    0.127131
      2          1           0        0.000000    0.758039   -0.508525
      3          1           0       -0.000000   -0.758039   -0.508525
 ---------------------------------------------------------------------

 The electronic state is 1-A1.
 Alpha  occ. eigenvalues --  -20.25155  -1.25760  -0.59393  -0.45972  -0.39262
 Alpha virt. eigenvalues --    0.58190   0.69284

 Mulliken charges:
               1
     1  O   -0.330652
     2  H    0.165326
     3  H    0.165326
 Sum of Mulliken charges =  -0.00000

 Dipole moment (field-independent basis, Debye):
    X=             -0.0000    Y=              0.0000    Z=             -1.7093  Tot=              1.7093
 Quadrupole moment (field-independent basis, Debye-Ang):
   XX=             -6.1255   YY=             -4.4853   ZZ=             -5.3334
   XY=              0.0000   XZ=              0.0000   YZ=              0.0000

 Summary of Natural Population Analysis:

                                       Natural Population
                Natural  -----------------------------------------------
    Atom  No    Charge         Core      Valence    Rydberg      Total
 -----------------------------------------------------------------------
      O    1   -0.36599      2.00000     6.36599    0.00000     8.36599
      H    2    0.18300      0.00000     0.81700    0.00000     0.81700
      H    3    0.18300      0.00000     0.81700    0.00000     0.81700
 =======================================================================
   * Total *   -0.00000      2.00000     8.00000    0.00000    10.00000

 Normal termination of Gaussian 16 at Tue May  6 22:05:10 2025.
