 Gaussian 09, Revision B.01,
 Gaussian 09:  EM64L-G09RevB.01 12-Aug-2010

 -------------------
 #p b3lyp/sto-3g opt
 -------------------

 ---
 dvb
 ---
 Symbolic Z-matrix:
 Charge =  0 Multiplicity = 1

 SCF Done:  E(RB3LYP) =  -382.300253128     A.U. after   13 cycles
 SCF Done:  E(RB3LYP) =  -382.307648313     A.U. after   13 cycles
 SCF Done:  E(RB3LYP) =  -382.308229680     A.U. after   11 cycles
 SCF Done:  E(RB3LYP) =  -382.308268084     A.U. after    8 cycles
 SCF Done:  E(RB3LYP) =  -382.308269001     A.U. after    7 cycles
 Optimization completed.
    -- Stationary point found.

                         Standard orientation:
 ---------------------------------------------------------------------
 Center     Atomic      Atomic             Coordinates (Angstroms)
 Number     Number       Type             X           Y           Z
 ---------------------------------------------------------------------
      1          6           0        1.231030    0.738749    0.000000
      2          6           0       -0.027444    1.401776    0.000000
      3          6           0       -1.231030    0.682480    0.000000
      4          6           0       -1.231030   -0.738749    0.000000
      5          6           0        0.027444   -1.401776    0.000000
      6          6           0        1.231030   -0.682480    0.000000
      7          1           0       -0.051301    2.500158    0.000000
      8          1           0       -2.183853    1.227279    0.000000
      9          1           0        0.051301   -2.500158    0.000000
     10          1           0        2.183853   -1.227279    0.000000
     11          6           0       -2.486448   -1.555221    0.000000
     12          6           0       -3.746635   -1.087083    0.000000
     13          1           0       -2.322043   -2.643302    0.000000
     14          1           0       -4.605806   -1.767902    0.000000
     15          1           0       -3.979335   -0.016096    0.000000
     16          6           0        2.486448    1.555221    0.000000
     17          6           0        3.746635    1.087083    0.000000
     18          1           0        2.322043    2.643302    0.000000
     19          1           0        4.605806    1.767902    0.000000
     20          1           0        3.979335    0.016096    0.000000
 ---------------------------------------------------------------------

 The electronic state is 1-AG.
 Alpha  occ. eigenvalues --  -10.02021 -10.02016 -10.00812 -10.00811 -10.00678
 Alpha  occ. eigenvalues --  -10.00678 -10.00605 -10.00591  -9.99233  -9.99233
 Alpha  occ. eigenvalues --   -0.80950  -0.75398  -0.71796  -0.69978  -0.66749
 Alpha  occ. eigenvalues --   -0.58869  -0.55891  -0.53167  -0.51017  -0.45745
 Alpha  occ. eigenvalues --   -0.43936  -0.41060  -0.39795  -0.39606  -0.37396
 Alpha  occ. eigenvalues --   -0.35113  -0.34730  -0.32450  -0.31127  -0.29280
 Alpha  occ. eigenvalues --   -0.28745  -0.26354  -0.21244  -0.19505  -0.15306
 Alpha virt. eigenvalues --    0.03740   0.09038   0.11060   0.18219   0.27252
 Alpha virt. eigenvalues --    0.33229   0.34075   0.37941   0.38144   0.41094
 Alpha virt. eigenvalues --    0.41193   0.42673   0.43962   0.45280   0.47829

 Mulliken atomic charges:
              1
     1  C   -0.004506
     2  C   -0.076621
     3  C   -0.077162
     4  C   -0.004506
     5  C   -0.076621
     6  C   -0.077162
     7  H    0.077694
     8  H    0.079214
     9  H    0.077694
    10  H    0.079214
    11  C   -0.076379
    12  C   -0.154811
    13  H    0.076888
    14  H    0.079348
    15  H    0.076334
    16  C   -0.076379
    17  C   -0.154811
    18  H    0.076888
    19  H    0.079348
    20  H    0.076334
 Sum of Mulliken atomic charges =   0.00000

 Dipole moment (field-independent basis, Debye):
    X=              0.0000    Y=              0.0000    Z=              0.0000  Tot=              0.0000
 Quadrupole moment (field-independent basis, Debye-Ang):
   XX=            -50.6963   YY=            -50.2415   ZZ=            -58.6254
   XY=             -0.1142   XZ=              0.0000   YZ=              0.0000

 Normal termination of Gaussian 09 at Sun Jun 29 23:42:08 2025.
