                         Program Version 4.1.2  - RELEASE  -
|  1> ! def2-qzvpp verytightscf noautostart nousesym
|  2>
|  3> %casscf
|  4>  nel 2
|  5>  norb 4
|  6>  end
|  7>
|  8> * xyz 0 1
|  9> Be 0 0 0
| 10> *
| 11>
| 12>                          ****END OF INPUT****

CARTESIAN COORDINATES (ANGSTROEM)
---------------------------------
  Be     0.000000    0.000000    0.000000

 Total Charge           Charge          ....    0
 Multiplicity           Mult            ....    1
 Number of Electrons    NEL             ....    4
 Basis Dimension        Dim             ....   36

ORBITAL ENERGIES
----------------

  NO   OCC          E(Eh)            E(eV)
   0   2.0000      -4.711845      -128.2158
   1   1.8038      -0.277797        -7.5592
   2   0.0654       0.112653         3.0655
   3   0.0654       0.112653         3.0655
   4   0.0654       0.112653         3.0655
   5   0.0000       0.127743         3.4761
   6   0.0000       0.150920         4.1067
   7   0.0000       0.150920         4.1067
   8   0.0000       0.150920         4.1067
   9   0.0000       0.274858         7.4793

MULLIKEN ATOMIC CHARGES
-----------------------
   0 Be:    0.000000
Sum of atomic charges:    0.0000000

LOEWDIN ATOMIC CHARGES
----------------------
   0 Be:    0.000000

FINAL SINGLE POINT ENERGY       -14.616497008249

DIPOLE MOMENT
-------------
                                X             Y             Z
Electronic contribution:      0.00000      -0.00000      -0.00000
Nuclear contribution   :      0.00000       0.00000       0.00000
                        -----------------------------------------
Total Dipole Moment    :      0.00000      -0.00000      -0.00000
                        -----------------------------------------
Magnitude (a.u.)       :      0.00000
Magnitude (Debye)      :      0.00000

Rotational constants in cm-1:     0.000000     0.000000     0.000000
Rotational constants in MHz :     0.000000     0.000000     0.000000

                             ****ORCA TERMINATED NORMALLY****
TOTAL RUN TIME: 0 days 0 hours 0 minutes 1 seconds 120 msec
