                               Psi4 1.2a1.dev429

  ==> Input File <==

--------------------------------------------------------------------------
molecule water {
0 1
O
H 1 0.99
H 1 0.99 2 106.0
}

set {
    basis sto-3g
}

findif_grad = gradient('mp2', dertype=0)
--------------------------------------------------------------------------

    Molecular point group: c2v
  Charge       = 0
  Multiplicity = 1
  Basis Set: STO-3G
    Blend: STO-3G
  Basis Set: (STO-3G AUX)
    Blend: DEF2-SVP-JKFIT
  @DF-RHF Final Energy:   -74.96448769051236
    Total Energy =                        -74.9644876905123567
  Basis Set: (STO-3G AUX)
    Blend: DEF2-QZVPP-RI
	 Reference Energy          =     -74.9644876905123567 [Eh]
	 Singles Energy            =      -0.0000000000000000 [Eh]
	 Same-Spin Energy          =      -0.0021999428558661 [Eh]
	 Opposite-Spin Energy      =      -0.0359806441630562 [Eh]
	 Correlation Energy        =      -0.0381805870189223 [Eh]
	 Total Energy              =     -75.0026682775312850 [Eh]
	 SCS Total Energy          =     -75.0083977777933200 [Eh]
    Molecular point group: c2v
  Basis Set: STO-3G
    Blend: STO-3G
  Basis Set: (STO-3G AUX)
    Blend: DEF2-SVP-JKFIT
  @DF-RHF Final Energy:   -74.96433836008400
    Total Energy =                        -74.9643383600839854
  Basis Set: (STO-3G AUX)
  @DF-RHF Final Energy:   -74.96431949741017
    Total Energy =                        -74.9643194974101732
  Multiplicity = 1
  @DF-RHF Final Energy:   -74.96450302530324
    Total Energy =                        -74.9645030253032303
	 Singles Energy            =      -0.0000000000000000 [Eh]
	 Same-Spin Energy          =      -0.0021808409101667 [Eh]
	 Opposite-Spin Energy      =      -0.0357580314107529 [Eh]
	 Correlation Energy        =      -0.0379388723209196 [Eh]
	 Total Energy              =     -75.0024418976241662 [Eh]
	 SCS Total Energy          =     -75.0081396099662072 [Eh]
    Molecular point group: c2v

    Geometry (in Angstrom), charge = 0, multiplicity = 1:

       Center              X                  Y                   Z               Mass
    ------------   -----------------  -----------------  -----------------  -----------------
           O          0.000000000000     0.000000000000    -0.066678531529    15.994914619560
           H          0.000000000000    -0.790649154947     0.529118341392     1.007825032070
           H          0.000000000000     0.790649154947     0.529118341392     1.007825032070

  Charge       = 0
  Multiplicity = 1
  Basis Set: STO-3G
    Blend: STO-3G
  Basis Set: (STO-3G AUX)
    Blend: DEF2-SVP-JKFIT

    Orbital Energies (a.u.)
    -----------------------

    Doubly Occupied:

       1A1   -20.243976     2A1    -1.250662     1B2    -0.603166
       3A1    -0.445470     1B1    -0.388215

  @DF-RHF Final Energy:   -74.96441713217999

   => Energetics <=

    Nuclear Repulsion Energy =              8.8870062258783413
    One-Electron Energy =                -121.8398687157834104
    Two-Electron Energy =                  37.9884453577250767
    Total Energy =                        -74.9644171321799888
  Basis Set: (STO-3G AUX)
    Blend: DEF2-QZVPP-RI
	 Reference Energy          =     -74.9644171321799888 [Eh]
	 Singles Energy            =      -0.0000000000000000 [Eh]
	 Same-Spin Energy          =      -0.0021865372481200 [Eh]
	 Opposite-Spin Energy      =      -0.0358629201392995 [Eh]
	 Correlation Energy        =      -0.0380494573874195 [Eh]
	 Total Energy              =     -75.0024665895674048 [Eh]

	 ================> DF-SCS-MP2 Energies <==================
	-----------------------------------------------------------
	 SCS Same-Spin Scale       =       0.3333333333333333 [-]
	 SCS Opposite-Spin Scale   =       1.2000000000000000 [-]
	 SCS Same-Spin Energy      =      -0.0007288457493733 [Eh]
	 SCS Opposite-Spin Energy  =      -0.0430355041671594 [Eh]
	 SCS Correlation Energy    =      -0.0437643499165327 [Eh]
	 SCS Total Energy          =     -75.0081814820965178 [Eh]
	-----------------------------------------------------------

*** Psi4 exiting successfully. Buy a developer a beer!
